version 2
run nodebug-0-20150102-21:43:23-18030
attr configname nodebug
attr datetime 20150102-21:43:23
attr experiment nodebug
attr inifile omnetpp.ini
attr iterationvars ""
attr iterationvars2 $repetition=0
attr measurement ""
attr network InfoBusScenario
attr processid 18030
attr repetition 0
attr replication #0
attr resultdir results
attr runnumber 0
attr seedset 0

vector 2  InfoBusScenario.node[0].veinsmobility  posx  ETV
vector 3  InfoBusScenario.node[0].veinsmobility  posy  ETV
vector 9  InfoBusScenario.node[1].veinsmobility  posx  ETV
vector 10  InfoBusScenario.node[1].veinsmobility  posy  ETV
vector 16  InfoBusScenario.node[2].veinsmobility  posx  ETV
vector 17  InfoBusScenario.node[2].veinsmobility  posy  ETV
vector 23  InfoBusScenario.node[3].veinsmobility  posx  ETV
vector 24  InfoBusScenario.node[3].veinsmobility  posy  ETV
vector 30  InfoBusScenario.node[4].veinsmobility  posx  ETV
vector 31  InfoBusScenario.node[4].veinsmobility  posy  ETV
vector 37  InfoBusScenario.node[5].veinsmobility  posx  ETV
vector 38  InfoBusScenario.node[5].veinsmobility  posy  ETV
vector 44  InfoBusScenario.node[6].veinsmobility  posx  ETV
vector 45  InfoBusScenario.node[6].veinsmobility  posy  ETV
vector 4  InfoBusScenario.node[0].veinsmobility  speed  ETV
vector 11  InfoBusScenario.node[1].veinsmobility  speed  ETV
vector 18  InfoBusScenario.node[2].veinsmobility  speed  ETV
vector 25  InfoBusScenario.node[3].veinsmobility  speed  ETV
vector 32  InfoBusScenario.node[4].veinsmobility  speed  ETV
vector 39  InfoBusScenario.node[5].veinsmobility  speed  ETV
vector 46  InfoBusScenario.node[6].veinsmobility  speed  ETV
vector 51  InfoBusScenario.node[7].veinsmobility  posx  ETV
vector 52  InfoBusScenario.node[7].veinsmobility  posy  ETV
vector 5  InfoBusScenario.node[0].veinsmobility  acceleration  ETV
vector 6  InfoBusScenario.node[0].veinsmobility  co2emission  ETV
vector 12  InfoBusScenario.node[1].veinsmobility  acceleration  ETV
vector 13  InfoBusScenario.node[1].veinsmobility  co2emission  ETV
vector 19  InfoBusScenario.node[2].veinsmobility  acceleration  ETV
vector 20  InfoBusScenario.node[2].veinsmobility  co2emission  ETV
vector 26  InfoBusScenario.node[3].veinsmobility  acceleration  ETV
vector 27  InfoBusScenario.node[3].veinsmobility  co2emission  ETV
vector 33  InfoBusScenario.node[4].veinsmobility  acceleration  ETV
vector 34  InfoBusScenario.node[4].veinsmobility  co2emission  ETV
vector 40  InfoBusScenario.node[5].veinsmobility  acceleration  ETV
vector 41  InfoBusScenario.node[5].veinsmobility  co2emission  ETV
vector 47  InfoBusScenario.node[6].veinsmobility  acceleration  ETV
vector 48  InfoBusScenario.node[6].veinsmobility  co2emission  ETV
vector 53  InfoBusScenario.node[7].veinsmobility  speed  ETV
vector 58  InfoBusScenario.node[8].veinsmobility  posx  ETV
vector 59  InfoBusScenario.node[8].veinsmobility  posy  ETV
vector 54  InfoBusScenario.node[7].veinsmobility  acceleration  ETV
vector 55  InfoBusScenario.node[7].veinsmobility  co2emission  ETV
vector 60  InfoBusScenario.node[8].veinsmobility  speed  ETV
vector 65  InfoBusScenario.node[9].veinsmobility  posx  ETV
vector 66  InfoBusScenario.node[9].veinsmobility  posy  ETV
vector 61  InfoBusScenario.node[8].veinsmobility  acceleration  ETV
vector 62  InfoBusScenario.node[8].veinsmobility  co2emission  ETV
vector 67  InfoBusScenario.node[9].veinsmobility  speed  ETV
vector 72  InfoBusScenario.node[10].veinsmobility  posx  ETV
vector 73  InfoBusScenario.node[10].veinsmobility  posy  ETV
vector 68  InfoBusScenario.node[9].veinsmobility  acceleration  ETV
vector 69  InfoBusScenario.node[9].veinsmobility  co2emission  ETV
vector 74  InfoBusScenario.node[10].veinsmobility  speed  ETV
vector 79  InfoBusScenario.node[11].veinsmobility  posx  ETV
vector 80  InfoBusScenario.node[11].veinsmobility  posy  ETV
vector 75  InfoBusScenario.node[10].veinsmobility  acceleration  ETV
vector 76  InfoBusScenario.node[10].veinsmobility  co2emission  ETV
vector 81  InfoBusScenario.node[11].veinsmobility  speed  ETV
vector 86  InfoBusScenario.node[12].veinsmobility  posx  ETV
vector 87  InfoBusScenario.node[12].veinsmobility  posy  ETV
vector 82  InfoBusScenario.node[11].veinsmobility  acceleration  ETV
vector 83  InfoBusScenario.node[11].veinsmobility  co2emission  ETV
vector 88  InfoBusScenario.node[12].veinsmobility  speed  ETV
vector 93  InfoBusScenario.node[13].veinsmobility  posx  ETV
vector 94  InfoBusScenario.node[13].veinsmobility  posy  ETV
vector 89  InfoBusScenario.node[12].veinsmobility  acceleration  ETV
vector 90  InfoBusScenario.node[12].veinsmobility  co2emission  ETV
vector 95  InfoBusScenario.node[13].veinsmobility  speed  ETV
vector 100  InfoBusScenario.node[14].veinsmobility  posx  ETV
vector 101  InfoBusScenario.node[14].veinsmobility  posy  ETV
vector 96  InfoBusScenario.node[13].veinsmobility  acceleration  ETV
vector 97  InfoBusScenario.node[13].veinsmobility  co2emission  ETV
vector 102  InfoBusScenario.node[14].veinsmobility  speed  ETV
vector 107  InfoBusScenario.node[15].veinsmobility  posx  ETV
vector 108  InfoBusScenario.node[15].veinsmobility  posy  ETV
vector 103  InfoBusScenario.node[14].veinsmobility  acceleration  ETV
vector 104  InfoBusScenario.node[14].veinsmobility  co2emission  ETV
vector 109  InfoBusScenario.node[15].veinsmobility  speed  ETV
vector 114  InfoBusScenario.node[16].veinsmobility  posx  ETV
vector 115  InfoBusScenario.node[16].veinsmobility  posy  ETV
vector 110  InfoBusScenario.node[15].veinsmobility  acceleration  ETV
vector 111  InfoBusScenario.node[15].veinsmobility  co2emission  ETV
vector 116  InfoBusScenario.node[16].veinsmobility  speed  ETV
vector 121  InfoBusScenario.node[17].veinsmobility  posx  ETV
vector 122  InfoBusScenario.node[17].veinsmobility  posy  ETV
vector 117  InfoBusScenario.node[16].veinsmobility  acceleration  ETV
vector 118  InfoBusScenario.node[16].veinsmobility  co2emission  ETV
vector 123  InfoBusScenario.node[17].veinsmobility  speed  ETV
vector 128  InfoBusScenario.node[18].veinsmobility  posx  ETV
vector 129  InfoBusScenario.node[18].veinsmobility  posy  ETV
vector 124  InfoBusScenario.node[17].veinsmobility  acceleration  ETV
vector 125  InfoBusScenario.node[17].veinsmobility  co2emission  ETV
vector 130  InfoBusScenario.node[18].veinsmobility  speed  ETV
vector 135  InfoBusScenario.node[19].veinsmobility  posx  ETV
vector 136  InfoBusScenario.node[19].veinsmobility  posy  ETV
vector 131  InfoBusScenario.node[18].veinsmobility  acceleration  ETV
vector 132  InfoBusScenario.node[18].veinsmobility  co2emission  ETV
vector 137  InfoBusScenario.node[19].veinsmobility  speed  ETV
vector 142  InfoBusScenario.node[20].veinsmobility  posx  ETV
vector 143  InfoBusScenario.node[20].veinsmobility  posy  ETV
vector 138  InfoBusScenario.node[19].veinsmobility  acceleration  ETV
vector 139  InfoBusScenario.node[19].veinsmobility  co2emission  ETV
vector 144  InfoBusScenario.node[20].veinsmobility  speed  ETV
vector 149  InfoBusScenario.node[21].veinsmobility  posx  ETV
vector 150  InfoBusScenario.node[21].veinsmobility  posy  ETV
vector 145  InfoBusScenario.node[20].veinsmobility  acceleration  ETV
vector 146  InfoBusScenario.node[20].veinsmobility  co2emission  ETV
vector 151  InfoBusScenario.node[21].veinsmobility  speed  ETV
vector 156  InfoBusScenario.node[22].veinsmobility  posx  ETV
vector 157  InfoBusScenario.node[22].veinsmobility  posy  ETV
vector 152  InfoBusScenario.node[21].veinsmobility  acceleration  ETV
vector 153  InfoBusScenario.node[21].veinsmobility  co2emission  ETV
vector 158  InfoBusScenario.node[22].veinsmobility  speed  ETV
vector 159  InfoBusScenario.node[22].veinsmobility  acceleration  ETV
vector 160  InfoBusScenario.node[22].veinsmobility  co2emission  ETV
vector 163  InfoBusScenario.node[23].veinsmobility  posx  ETV
vector 164  InfoBusScenario.node[23].veinsmobility  posy  ETV
vector 165  InfoBusScenario.node[23].veinsmobility  speed  ETV
vector 170  InfoBusScenario.node[24].veinsmobility  posx  ETV
vector 171  InfoBusScenario.node[24].veinsmobility  posy  ETV
vector 166  InfoBusScenario.node[23].veinsmobility  acceleration  ETV
vector 167  InfoBusScenario.node[23].veinsmobility  co2emission  ETV
vector 172  InfoBusScenario.node[24].veinsmobility  speed  ETV
vector 177  InfoBusScenario.node[25].veinsmobility  posx  ETV
vector 178  InfoBusScenario.node[25].veinsmobility  posy  ETV
vector 173  InfoBusScenario.node[24].veinsmobility  acceleration  ETV
vector 174  InfoBusScenario.node[24].veinsmobility  co2emission  ETV
vector 179  InfoBusScenario.node[25].veinsmobility  speed  ETV
vector 184  InfoBusScenario.node[26].veinsmobility  posx  ETV
vector 185  InfoBusScenario.node[26].veinsmobility  posy  ETV
vector 180  InfoBusScenario.node[25].veinsmobility  acceleration  ETV
vector 181  InfoBusScenario.node[25].veinsmobility  co2emission  ETV
vector 186  InfoBusScenario.node[26].veinsmobility  speed  ETV
vector 191  InfoBusScenario.node[27].veinsmobility  posx  ETV
vector 192  InfoBusScenario.node[27].veinsmobility  posy  ETV
vector 187  InfoBusScenario.node[26].veinsmobility  acceleration  ETV
vector 188  InfoBusScenario.node[26].veinsmobility  co2emission  ETV
vector 193  InfoBusScenario.node[27].veinsmobility  speed  ETV
vector 198  InfoBusScenario.node[28].veinsmobility  posx  ETV
vector 199  InfoBusScenario.node[28].veinsmobility  posy  ETV
vector 194  InfoBusScenario.node[27].veinsmobility  acceleration  ETV
vector 195  InfoBusScenario.node[27].veinsmobility  co2emission  ETV
vector 200  InfoBusScenario.node[28].veinsmobility  speed  ETV
vector 205  InfoBusScenario.node[29].veinsmobility  posx  ETV
vector 206  InfoBusScenario.node[29].veinsmobility  posy  ETV
vector 201  InfoBusScenario.node[28].veinsmobility  acceleration  ETV
vector 202  InfoBusScenario.node[28].veinsmobility  co2emission  ETV
vector 207  InfoBusScenario.node[29].veinsmobility  speed  ETV
vector 212  InfoBusScenario.node[30].veinsmobility  posx  ETV
vector 213  InfoBusScenario.node[30].veinsmobility  posy  ETV
vector 219  InfoBusScenario.node[31].veinsmobility  posx  ETV
vector 220  InfoBusScenario.node[31].veinsmobility  posy  ETV
vector 208  InfoBusScenario.node[29].veinsmobility  acceleration  ETV
vector 209  InfoBusScenario.node[29].veinsmobility  co2emission  ETV
vector 214  InfoBusScenario.node[30].veinsmobility  speed  ETV
vector 221  InfoBusScenario.node[31].veinsmobility  speed  ETV
vector 226  InfoBusScenario.node[32].veinsmobility  posx  ETV
vector 227  InfoBusScenario.node[32].veinsmobility  posy  ETV
vector 215  InfoBusScenario.node[30].veinsmobility  acceleration  ETV
vector 216  InfoBusScenario.node[30].veinsmobility  co2emission  ETV
vector 222  InfoBusScenario.node[31].veinsmobility  acceleration  ETV
vector 223  InfoBusScenario.node[31].veinsmobility  co2emission  ETV
vector 228  InfoBusScenario.node[32].veinsmobility  speed  ETV
vector 233  InfoBusScenario.node[33].veinsmobility  posx  ETV
vector 234  InfoBusScenario.node[33].veinsmobility  posy  ETV
vector 229  InfoBusScenario.node[32].veinsmobility  acceleration  ETV
vector 230  InfoBusScenario.node[32].veinsmobility  co2emission  ETV
vector 235  InfoBusScenario.node[33].veinsmobility  speed  ETV
vector 240  InfoBusScenario.node[34].veinsmobility  posx  ETV
vector 241  InfoBusScenario.node[34].veinsmobility  posy  ETV
vector 236  InfoBusScenario.node[33].veinsmobility  acceleration  ETV
vector 237  InfoBusScenario.node[33].veinsmobility  co2emission  ETV
vector 242  InfoBusScenario.node[34].veinsmobility  speed  ETV
vector 247  InfoBusScenario.node[35].veinsmobility  posx  ETV
vector 248  InfoBusScenario.node[35].veinsmobility  posy  ETV
vector 243  InfoBusScenario.node[34].veinsmobility  acceleration  ETV
vector 244  InfoBusScenario.node[34].veinsmobility  co2emission  ETV
vector 249  InfoBusScenario.node[35].veinsmobility  speed  ETV
vector 254  InfoBusScenario.node[36].veinsmobility  posx  ETV
vector 255  InfoBusScenario.node[36].veinsmobility  posy  ETV
vector 250  InfoBusScenario.node[35].veinsmobility  acceleration  ETV
vector 251  InfoBusScenario.node[35].veinsmobility  co2emission  ETV
vector 256  InfoBusScenario.node[36].veinsmobility  speed  ETV
vector 261  InfoBusScenario.node[37].veinsmobility  posx  ETV
vector 262  InfoBusScenario.node[37].veinsmobility  posy  ETV
vector 257  InfoBusScenario.node[36].veinsmobility  acceleration  ETV
vector 258  InfoBusScenario.node[36].veinsmobility  co2emission  ETV
vector 263  InfoBusScenario.node[37].veinsmobility  speed  ETV
vector 268  InfoBusScenario.node[38].veinsmobility  posx  ETV
vector 269  InfoBusScenario.node[38].veinsmobility  posy  ETV
vector 264  InfoBusScenario.node[37].veinsmobility  acceleration  ETV
vector 265  InfoBusScenario.node[37].veinsmobility  co2emission  ETV
vector 270  InfoBusScenario.node[38].veinsmobility  speed  ETV
vector 275  InfoBusScenario.pedestrian[0].veinsmobility  posx  ETV
vector 276  InfoBusScenario.pedestrian[0].veinsmobility  posy  ETV
vector 280  InfoBusScenario.node[39].veinsmobility  posx  ETV
vector 281  InfoBusScenario.node[39].veinsmobility  posy  ETV
vector 271  InfoBusScenario.node[38].veinsmobility  acceleration  ETV
vector 272  InfoBusScenario.node[38].veinsmobility  co2emission  ETV
vector 282  InfoBusScenario.node[39].veinsmobility  speed  ETV
vector 287  InfoBusScenario.node[40].veinsmobility  posx  ETV
vector 288  InfoBusScenario.node[40].veinsmobility  posy  ETV
vector 283  InfoBusScenario.node[39].veinsmobility  acceleration  ETV
vector 284  InfoBusScenario.node[39].veinsmobility  co2emission  ETV
vector 289  InfoBusScenario.node[40].veinsmobility  speed  ETV
vector 294  InfoBusScenario.node[41].veinsmobility  posx  ETV
vector 295  InfoBusScenario.node[41].veinsmobility  posy  ETV
vector 290  InfoBusScenario.node[40].veinsmobility  acceleration  ETV
vector 291  InfoBusScenario.node[40].veinsmobility  co2emission  ETV
vector 296  InfoBusScenario.node[41].veinsmobility  speed  ETV
vector 301  InfoBusScenario.node[42].veinsmobility  posx  ETV
vector 302  InfoBusScenario.node[42].veinsmobility  posy  ETV
vector 297  InfoBusScenario.node[41].veinsmobility  acceleration  ETV
vector 298  InfoBusScenario.node[41].veinsmobility  co2emission  ETV
vector 303  InfoBusScenario.node[42].veinsmobility  speed  ETV
vector 308  InfoBusScenario.node[43].veinsmobility  posx  ETV
vector 309  InfoBusScenario.node[43].veinsmobility  posy  ETV
vector 304  InfoBusScenario.node[42].veinsmobility  acceleration  ETV
vector 305  InfoBusScenario.node[42].veinsmobility  co2emission  ETV
vector 310  InfoBusScenario.node[43].veinsmobility  speed  ETV
vector 315  InfoBusScenario.node[44].veinsmobility  posx  ETV
vector 316  InfoBusScenario.node[44].veinsmobility  posy  ETV
vector 311  InfoBusScenario.node[43].veinsmobility  acceleration  ETV
vector 312  InfoBusScenario.node[43].veinsmobility  co2emission  ETV
vector 317  InfoBusScenario.node[44].veinsmobility  speed  ETV
34	4	1.5	2.8380383887628
34	5	2	2.93486924789
34	6	2.5	3.6764865338403
34	7	3	3.7262807877596
34	8	3.5	1.8083924475752
34	9	4	0.973
34	10	4.5	0.973
34	11	5	3.0539061475095
34	12	5.5	2.7818958756239
34	13	6	0.973
34	14	6.5	0.973
34	15	7	4.5142837145832
34	16	7.5	5.08667519106
34	17	8	5.3618872663963
34	18	8.5	5.37675436232
34	19	9	5.5830838310678
34	20	9.5	7.3844504001826
34	21	10	7.59637053847
34	22	10.5	8.3840947849286
34	23	11	8.0107151593565
34	24	11.5	4.8457326368191
34	25	12	2.0298233397963
34	26	12.5	1.8429916826213
34	27	13	2.0177100343209
34	28	13.5	1.710406036382
34	29	14	0.973
34	30	14.5	0.973
34	31	15	0.973
34	32	15.5	0.973
34	33	16	0.973
34	34	16.5	0.973
34	35	17	0.973
34	36	17.5	4.4080119818096
34	37	18	5.0230163164616
34	38	18.5	4.9609804859582
34	39	19	5.1084167281385
34	40	19.5	4.7420866389685
34	41	20	6.1113799552494
34	42	20.5	7.6785703572394
34	43	21	7.4919079803171
34	44	21.5	8.1120585900579
34	45	22	8.8053478148037
34	46	22.5	1.4744874806827
34	47	23	2.5988708654715
34	48	23.5	1.6794870580313
34	49	24	2.2551362080761
34	50	24.5	1.5828458067639
34	51	25	2.2617312519067
34	52	25.5	1.8481710396291
34	53	26	2.5825930737649
34	54	26.5	1.3274507694063
34	55	27	2.0289753702201
34	56	27.5	2.0842990625428
34	57	28	2.6253072655064
34	58	28.5	1.2759776531821
34	59	29	2.1942673881223
34	60	29.5	2.3552705143201
34	61	30	2.015296144596
34	62	30.5	1.9996898688584
34	63	31	1.5702297698392
34	64	31.5	2.1461776971661
34	65	32	2.2748239163717
34	66	32.5	1.7351103647603
34	67	33	2.1759856577474
34	68	33.5	0.973
34	69	34	0.973
34	70	34.5	0.973
34	71	35	0.973
34	72	35.5	0.973
34	73	36	0.973
34	74	36.5	0.973
34	75	37	0.973
34	76	37.5	4.6698704673176
34	77	38	4.7890618488552
34	78	38.5	5.1417480238673
34	79	39	0.973
33	4	1.5	2.1349442050358
33	5	2	1.7221403949847
33	6	2.5	1.96069002565
33	7	3	1.6766056594951
33	8	3.5	0.27896907706386
33	9	4	-2.2886595489284
33	10	4.5	-2.3025712084424
33	11	5	1.6247988606231
33	12	5.5	1.18
33	13	6	-1.4743299072453
33	14	6.5	-1.0550885635221
33	15	7	2.6
33	16	7.5	2.4286154483166
33	17	8	2.1848459611228
33	18	8.5	1.9094761787867
33	19	9	1.7886916006356
33	20	9.5	2.280914882198
33	21	10	2.1150423499662
33	22	10.5	2.1622802627785
33	23	11	1.8684663475864
33	24	11.5	0.84821432064713
33	25	12	0.0027396327489981
33	26	12.5	-0.052649521436543
33	27	13	-9.6706268376323e-05
33	28	13.5	-0.091443887584589
33	29	14	-3.4560415595668
33	30	14.5	-3.4370741871324
33	31	15	-3.1933483258175
33	32	15.5	-2.9042538815133
33	33	16	-2.6415146291236
33	34	16.5	-2.6652716087513
33	35	17	-2.0594096137236
33	36	17.5	2.6
33	37	18	2.4491381534701
33	38	18.5	2.0279378476739
33	39	19	1.8411358667631
33	40	19.5	1.487931437986
33	41	20	1.8979110953771
33	42	20.5	2.2653064359026
33	43	21	1.9813522570068
33	44	21.5	1.9983453458128
33	45	22	2.0298838159443
33	46	22.5	-0.16318442164454
33	47	23	0.17171979133505
33	48	23.5	-0.10225060144439
33	49	24	0.069430882851591
33	50	24.5	-0.13064030502923
33	51	25	0.072442162521185
33	52	25.5	-0.051051071034745
33	53	26	0.1663340282999
33	54	26.5	-0.20737500253133
33	55	27	0.0039056297577922
33	56	27.5	0.020247545815071
33	57	28	0.17919311607722
33	58	28.5	-0.22274412345141
33	59	29	0.05318258270156
33	60	29.5	0.099748341422526
33	61	30	-0.0021454443829114
33	62	30.5	-0.0067241684161132
33	63	31	-0.13413796238136
33	64	31.5	0.038787083537319
33	65	32	0.076133641754275
33	66	32.5	-0.084813853674568
33	67	33	0.047107802978719
33	68	33.5	-1.7145912623946
33	69	34	-3.4770010142619
33	70	34.5	-3.163482259242
33	71	35	-3.0278892310918
33	72	35.5	-3.0315416987833
33	73	36	-2.6594447226137
33	74	36.5	-2.4213978523733
33	75	37	-0.20878818260915
33	76	37.5	2.6
33	77	38	2.1886087725498
33	78	38.5	2.0478321320983
33	79	39	-0.74742235295475
32	3	1	1.9984376355134
32	4	1.5	3.0659097380313
32	5	2	3.9269799355236
32	6	2.5	4.9073249483486
32	7	3	5.7456277780962
32	8	3.5	5.8851123166281
32	9	4	4.7407825421639
32	10	4.5	3.5894969379427
32	11	5	4.4018963682542
32	12	5.5	4.9918963682542
32	13	6	4.2547314146316
32	14	6.5	3.7271871328705
32	15	7	5.0271871328705
32	16	7.5	6.2414948570288
32	17	8	7.3339178375902
32	18	8.5	8.2886559269835
32	19	9	9.1830017273014
32	20	9.5	10.3234591684
32	21	10	11.380980343383
32	22	10.5	12.462120474773
32	23	11	13.396353648566
32	24	11.5	13.820460808889
32	25	12	13.821830625264
32	26	12.5	13.795505864546
32	27	13	13.795457511412
32	28	13.5	13.749735567619
32	29	14	12.021714787836
32	30	14.5	10.30317769427
32	31	15	8.7065035313609
32	32	15.5	7.2543765906042
32	33	16	5.9336192760424
32	34	16.5	4.6009834716667
32	35	17	3.5712786648049
32	36	17.5	4.8712786648049
32	37	18	6.09584774154
32	38	18.5	7.109816665377
32	39	19	8.0303845987585
32	40	19.5	8.7743503177515
32	41	20	9.72330586544
32	42	20.5	10.855959083391
32	43	21	11.846635211895
32	44	21.5	12.845807884801
32	45	22	13.860749792773
32	46	22.5	13.779157581951
32	47	23	13.865017477619
32	48	23.5	13.813892176896
32	49	24	13.848607618322
32	50	24.5	13.783287465808
32	51	25	13.819508547068
32	52	25.5	13.793983011551
32	53	26	13.877150025701
32	54	26.5	13.773462524435
32	55	27	13.775415339314
32	56	27.5	13.785539112221
32	57	28	13.87513567026
32	58	28.5	13.763763608534
32	59	29	13.790354899885
32	60	29.5	13.840229070596
32	61	30	13.839156348405
32	62	30.5	13.835794264197
32	63	31	13.768725283006
32	64	31.5	13.788118824775
32	65	32	13.826185645652
32	66	32.5	13.783778718815
32	67	33	13.807332620304
32	68	33.5	12.950036989107
32	69	34	11.211536481976
32	70	34.5	9.6297953523548
32	71	35	8.1158507368089
32	72	35.5	6.6000798874173
32	73	36	5.2703575261104
32	74	36.5	4.0596585999238
32	75	37	3.9552645086192
32	76	37.5	5.2552645086192
32	77	38	6.3495688948941
32	78	38.5	7.3734849609432
32	79	39	6.9997737844658
31	2	0.5	14417.649202717
31	3	1	14417.649202717
31	4	1.5	14417.898178266
31	5	2	14418.315132546
31	6	2.5	14418.882507844
31	7	3	14419.597064793
31	8	3.5	14420.452573684
31	9	4	14421.411063376
31	10	4.5	14422.22817662
31	11	5	14422.854624602
31	12	5.5	14423.465477748
31	13	6	14424.258553156
31	14	6.5	14424.72901153
31	15	7	14424.793151468
31	16	7.5	14424.333965819
31	17	8	14422.712073397
31	18	8.5	14419.940122042
31	19	9	14416.523351829
31	20	9.5	14412.739596337
31	21	10	14408.504421483
31	22	10.5	14403.790447164
31	23	11	14398.606690898
31	24	11.5	14392.984204208
31	25	12	14387.065033546
31	26	12.5	14381.116946799
31	27	13	14375.1882495
31	28	13.5	14369.241036984
31	29	14	14363.301745901
31	30	14.5	14357.854966899
31	31	15	14353.125539916
31	32	15.5	14349.078518414
31	33	16	14345.689260752
31	34	16.5	14342.912120487
31	35	17	14340.712829884
31	36	17.5	14339.001782536
31	37	18	14337.129858081
31	38	18.5	14334.649652981
31	39	19	14331.305049633
31	40	19.5	14327.501674308
31	41	20	14324.129350116
31	42	20.5	14321.644014704
31	43	21	14318.85660523
31	44	21.5	14315.799322238
31	45	22	14312.474315557
31	46	22.5	14308.862642668
31	47	23	14305.167532333
31	48	23.5	14301.048643047
31	49	24	14296.774558006
31	50	24.5	14292.499456277
31	51	25	14288.221968459
31	52	25.5	14283.529829341
31	53	26	14278.572974209
31	54	26.5	14273.407213794
31	55	27	14268.239065341
31	56	27.5	14263.086638254
31	57	28	14257.920626116
31	58	28.5	14252.69258128
31	59	29	14247.477515215
31	60	29.5	14242.260067032
31	61	30	14240.099513617
31	62	30.5	14242.139341044
31	63	31	14244.257981126
31	64	31.5	14246.369010029
31	65	32	14248.482693078
31	66	32.5	14250.599181714
31	67	33	14252.709434285
31	68	33.5	14254.82338731
31	69	34	14256.884279492
31	70	34.5	14258.701100697
31	71	35	14260.272017351
31	72	35.5	14261.599999293
31	73	36	14262.695975342
31	74	36.5	14263.588343767
31	75	37	14264.288408159
31	76	37.5	14264.856923562
31	77	38	14265.581064155
31	78	38.5	14266.331284679
31	79	39	14266.522250035
30	2	0.5	37048.077865304
30	3	1	37048.077865304
30	4	1.5	37048.828887906
30	5	2	37050.08661016
30	6	2.5	37051.798070078
30	7	3	37053.953496268
30	8	3.5	37056.534097117
30	9	4	37059.425334531
30	10	4.5	37061.890116786
30	11	5	37063.779766574
30	12	5.5	37065.622375298
30	13	6	37068.014648592
30	14	6.5	37070.340493675
30	15	7	37072.18771946
30	16	7.5	37074.369656244
30	17	8	37076.72970272
30	18	8.5	37078.792333971
30	19	9	37080.816214563
30	20	9.5	37083.057474241
30	21	10	37085.566126464
30	22	10.5	37088.358389491
30	23	11	37091.428921908
30	24	11.5	37094.759330739
30	25	12	37098.265476567
30	26	12.5	37101.788750471
30	27	13	37105.300539281
30	28	13.5	37108.823295346
30	29	14	37112.34135925
30	30	14.5	37115.567689856
30	31	15	37118.369106072
30	32	15.5	37120.766308039
30	33	16	37122.77389192
30	34	16.5	37124.418895808
30	35	17	37125.721617762
30	36	17.5	37126.735135003
30	37	18	37127.843945762
30	38	18.5	37129.106291998
30	39	19	37129.402096113
30	40	19.5	37129.738475036
30	41	20	37131.499108667
30	42	20.5	37135.425132307
30	43	21	37139.828334964
30	44	21.5	37144.657850225
30	45	22	37149.910282057
30	46	22.5	37155.615553495
30	47	23	37161.45262903
30	48	23.5	37166.998002085
30	49	24	37172.425096113
30	50	24.5	37177.8534811
30	51	25	37183.284895864
30	52	25.5	37188.334870532
30	53	26	37193.153588061
30	54	26.5	37197.751984178
30	55	27	37202.352506052
30	56	27.5	37206.939033263
30	57	28	37211.537653457
30	58	28.5	37216.079192508
30	59	29	37220.596802929
30	60	29.5	37225.116476887
30	61	30	37231.099057494
30	62	30.5	37237.692849606
30	63	31	37244.287292247
30	64	31.5	37250.858044461
30	65	32	37257.437057924
30	66	32.5	37264.02480401
30	67	33	37270.593139828
30	68	33.5	37277.172993615
30	69	34	37283.587691135
30	70	34.5	37289.242697535
30	71	35	37294.132305661
30	72	35.5	37298.265759388
30	73	36	37301.677075569
30	74	36.5	37304.454646161
30	75	37	37306.633654534
30	76	37.5	37308.403205789
30	77	38	37310.65715333
30	78	38.5	37313.527832817
30	79	39	37316.981337699
vector 322  InfoBusScenario.node[45].veinsmobility  posx  ETV
vector 323  InfoBusScenario.node[45].veinsmobility  posy  ETV
vector 329  InfoBusScenario.node[46].veinsmobility  posx  ETV
vector 330  InfoBusScenario.node[46].veinsmobility  posy  ETV
vector 318  InfoBusScenario.node[44].veinsmobility  acceleration  ETV
vector 319  InfoBusScenario.node[44].veinsmobility  co2emission  ETV
vector 331  InfoBusScenario.node[46].veinsmobility  speed  ETV
vector 324  InfoBusScenario.node[45].veinsmobility  speed  ETV
vector 336  InfoBusScenario.node[47].veinsmobility  posx  ETV
vector 337  InfoBusScenario.node[47].veinsmobility  posy  ETV
vector 332  InfoBusScenario.node[46].veinsmobility  acceleration  ETV
vector 333  InfoBusScenario.node[46].veinsmobility  co2emission  ETV
vector 325  InfoBusScenario.node[45].veinsmobility  acceleration  ETV
vector 326  InfoBusScenario.node[45].veinsmobility  co2emission  ETV
vector 338  InfoBusScenario.node[47].veinsmobility  speed  ETV
vector 343  InfoBusScenario.node[48].veinsmobility  posx  ETV
vector 344  InfoBusScenario.node[48].veinsmobility  posy  ETV
vector 339  InfoBusScenario.node[47].veinsmobility  acceleration  ETV
vector 340  InfoBusScenario.node[47].veinsmobility  co2emission  ETV
vector 345  InfoBusScenario.node[48].veinsmobility  speed  ETV
vector 350  InfoBusScenario.node[49].veinsmobility  posx  ETV
vector 351  InfoBusScenario.node[49].veinsmobility  posy  ETV
vector 346  InfoBusScenario.node[48].veinsmobility  acceleration  ETV
vector 347  InfoBusScenario.node[48].veinsmobility  co2emission  ETV
vector 352  InfoBusScenario.node[49].veinsmobility  speed  ETV
vector 357  InfoBusScenario.node[50].veinsmobility  posx  ETV
vector 358  InfoBusScenario.node[50].veinsmobility  posy  ETV
vector 353  InfoBusScenario.node[49].veinsmobility  acceleration  ETV
vector 354  InfoBusScenario.node[49].veinsmobility  co2emission  ETV
vector 359  InfoBusScenario.node[50].veinsmobility  speed  ETV
vector 364  InfoBusScenario.node[51].veinsmobility  posx  ETV
vector 365  InfoBusScenario.node[51].veinsmobility  posy  ETV
vector 360  InfoBusScenario.node[50].veinsmobility  acceleration  ETV
vector 361  InfoBusScenario.node[50].veinsmobility  co2emission  ETV
vector 366  InfoBusScenario.node[51].veinsmobility  speed  ETV
vector 371  InfoBusScenario.node[52].veinsmobility  posx  ETV
vector 372  InfoBusScenario.node[52].veinsmobility  posy  ETV
vector 378  InfoBusScenario.node[53].veinsmobility  posx  ETV
vector 379  InfoBusScenario.node[53].veinsmobility  posy  ETV
vector 385  InfoBusScenario.node[54].veinsmobility  posx  ETV
vector 386  InfoBusScenario.node[54].veinsmobility  posy  ETV
vector 392  InfoBusScenario.node[55].veinsmobility  posx  ETV
vector 393  InfoBusScenario.node[55].veinsmobility  posy  ETV
vector 367  InfoBusScenario.node[51].veinsmobility  acceleration  ETV
vector 368  InfoBusScenario.node[51].veinsmobility  co2emission  ETV
vector 373  InfoBusScenario.node[52].veinsmobility  speed  ETV
vector 380  InfoBusScenario.node[53].veinsmobility  speed  ETV
vector 387  InfoBusScenario.node[54].veinsmobility  speed  ETV
vector 394  InfoBusScenario.node[55].veinsmobility  speed  ETV
vector 399  InfoBusScenario.node[56].veinsmobility  posx  ETV
vector 400  InfoBusScenario.node[56].veinsmobility  posy  ETV
vector 374  InfoBusScenario.node[52].veinsmobility  acceleration  ETV
vector 375  InfoBusScenario.node[52].veinsmobility  co2emission  ETV
vector 381  InfoBusScenario.node[53].veinsmobility  acceleration  ETV
vector 382  InfoBusScenario.node[53].veinsmobility  co2emission  ETV
vector 388  InfoBusScenario.node[54].veinsmobility  acceleration  ETV
vector 389  InfoBusScenario.node[54].veinsmobility  co2emission  ETV
vector 395  InfoBusScenario.node[55].veinsmobility  acceleration  ETV
vector 396  InfoBusScenario.node[55].veinsmobility  co2emission  ETV
vector 401  InfoBusScenario.node[56].veinsmobility  speed  ETV
vector 406  InfoBusScenario.node[57].veinsmobility  posx  ETV
vector 407  InfoBusScenario.node[57].veinsmobility  posy  ETV
vector 402  InfoBusScenario.node[56].veinsmobility  acceleration  ETV
vector 403  InfoBusScenario.node[56].veinsmobility  co2emission  ETV
vector 408  InfoBusScenario.node[57].veinsmobility  speed  ETV
vector 413  InfoBusScenario.node[58].veinsmobility  posx  ETV
vector 414  InfoBusScenario.node[58].veinsmobility  posy  ETV
vector 409  InfoBusScenario.node[57].veinsmobility  acceleration  ETV
vector 410  InfoBusScenario.node[57].veinsmobility  co2emission  ETV
vector 415  InfoBusScenario.node[58].veinsmobility  speed  ETV
vector 420  InfoBusScenario.node[59].veinsmobility  posx  ETV
vector 421  InfoBusScenario.node[59].veinsmobility  posy  ETV
vector 416  InfoBusScenario.node[58].veinsmobility  acceleration  ETV
vector 417  InfoBusScenario.node[58].veinsmobility  co2emission  ETV
vector 422  InfoBusScenario.node[59].veinsmobility  speed  ETV
vector 427  InfoBusScenario.node[60].veinsmobility  posx  ETV
vector 428  InfoBusScenario.node[60].veinsmobility  posy  ETV
vector 434  InfoBusScenario.node[61].veinsmobility  posx  ETV
vector 435  InfoBusScenario.node[61].veinsmobility  posy  ETV
vector 441  InfoBusScenario.node[62].veinsmobility  posx  ETV
vector 442  InfoBusScenario.node[62].veinsmobility  posy  ETV
vector 423  InfoBusScenario.node[59].veinsmobility  acceleration  ETV
vector 424  InfoBusScenario.node[59].veinsmobility  co2emission  ETV