file 798549 1420245823                                          
version 2
run nodebug-0-20150102-21:43:23-18030
attr configname nodebug
attr datetime 20150102-21:43:23
attr experiment nodebug
attr inifile omnetpp.ini
attr iterationvars ""
attr iterationvars2 $repetition=0
attr measurement ""
attr network InfoBusScenario
attr processid 18030
attr repetition 0
attr replication #0
attr resultdir results
attr runnumber 0
attr seedset 0

vector 2  InfoBusScenario.node[0].veinsmobility  posx  ETV
vector 3  InfoBusScenario.node[0].veinsmobility  posy  ETV
vector 9  InfoBusScenario.node[1].veinsmobility  posx  ETV
vector 10  InfoBusScenario.node[1].veinsmobility  posy  ETV
vector 16  InfoBusScenario.node[2].veinsmobility  posx  ETV
vector 17  InfoBusScenario.node[2].veinsmobility  posy  ETV
vector 23  InfoBusScenario.node[3].veinsmobility  posx  ETV
vector 24  InfoBusScenario.node[3].veinsmobility  posy  ETV
vector 30  InfoBusScenario.node[4].veinsmobility  posx  ETV
vector 31  InfoBusScenario.node[4].veinsmobility  posy  ETV
vector 37  InfoBusScenario.node[5].veinsmobility  posx  ETV
vector 38  InfoBusScenario.node[5].veinsmobility  posy  ETV
vector 44  InfoBusScenario.node[6].veinsmobility  posx  ETV
vector 45  InfoBusScenario.node[6].veinsmobility  posy  ETV
vector 4  InfoBusScenario.node[0].veinsmobility  speed  ETV
vector 11  InfoBusScenario.node[1].veinsmobility  speed  ETV
vector 18  InfoBusScenario.node[2].veinsmobility  speed  ETV
vector 25  InfoBusScenario.node[3].veinsmobility  speed  ETV
vector 32  InfoBusScenario.node[4].veinsmobility  speed  ETV
vector 39  InfoBusScenario.node[5].veinsmobility  speed  ETV
vector 46  InfoBusScenario.node[6].veinsmobility  speed  ETV
vector 51  InfoBusScenario.node[7].veinsmobility  posx  ETV
vector 52  InfoBusScenario.node[7].veinsmobility  posy  ETV
vector 5  InfoBusScenario.node[0].veinsmobility  acceleration  ETV
vector 6  InfoBusScenario.node[0].veinsmobility  co2emission  ETV
vector 12  InfoBusScenario.node[1].veinsmobility  acceleration  ETV
vector 13  InfoBusScenario.node[1].veinsmobility  co2emission  ETV
vector 19  InfoBusScenario.node[2].veinsmobility  acceleration  ETV
vector 20  InfoBusScenario.node[2].veinsmobility  co2emission  ETV
vector 26  InfoBusScenario.node[3].veinsmobility  acceleration  ETV
vector 27  InfoBusScenario.node[3].veinsmobility  co2emission  ETV
vector 33  InfoBusScenario.node[4].veinsmobility  acceleration  ETV
vector 34  InfoBusScenario.node[4].veinsmobility  co2emission  ETV
vector 40  InfoBusScenario.node[5].veinsmobility  acceleration  ETV
vector 41  InfoBusScenario.node[5].veinsmobility  co2emission  ETV
vector 47  InfoBusScenario.node[6].veinsmobility  acceleration  ETV
vector 48  InfoBusScenario.node[6].veinsmobility  co2emission  ETV
vector 53  InfoBusScenario.node[7].veinsmobility  speed  ETV
vector 58  InfoBusScenario.node[8].veinsmobility  posx  ETV
vector 59  InfoBusScenario.node[8].veinsmobility  posy  ETV
vector 54  InfoBusScenario.node[7].veinsmobility  acceleration  ETV
vector 55  InfoBusScenario.node[7].veinsmobility  co2emission  ETV
vector 60  InfoBusScenario.node[8].veinsmobility  speed  ETV
vector 65  InfoBusScenario.node[9].veinsmobility  posx  ETV
vector 66  InfoBusScenario.node[9].veinsmobility  posy  ETV
vector 61  InfoBusScenario.node[8].veinsmobility  acceleration  ETV
vector 62  InfoBusScenario.node[8].veinsmobility  co2emission  ETV
vector 67  InfoBusScenario.node[9].veinsmobility  speed  ETV
vector 72  InfoBusScenario.node[10].veinsmobility  posx  ETV
vector 73  InfoBusScenario.node[10].veinsmobility  posy  ETV
vector 68  InfoBusScenario.node[9].veinsmobility  acceleration  ETV
vector 69  InfoBusScenario.node[9].veinsmobility  co2emission  ETV
vector 74  InfoBusScenario.node[10].veinsmobility  speed  ETV
vector 79  InfoBusScenario.node[11].veinsmobility  posx  ETV
vector 80  InfoBusScenario.node[11].veinsmobility  posy  ETV
vector 75  InfoBusScenario.node[10].veinsmobility  acceleration  ETV
vector 76  InfoBusScenario.node[10].veinsmobility  co2emission  ETV
vector 81  InfoBusScenario.node[11].veinsmobility  speed  ETV
vector 86  InfoBusScenario.node[12].veinsmobility  posx  ETV
vector 87  InfoBusScenario.node[12].veinsmobility  posy  ETV
vector 82  InfoBusScenario.node[11].veinsmobility  acceleration  ETV
vector 83  InfoBusScenario.node[11].veinsmobility  co2emission  ETV
vector 88  InfoBusScenario.node[12].veinsmobility  speed  ETV
vector 93  InfoBusScenario.node[13].veinsmobility  posx  ETV
vector 94  InfoBusScenario.node[13].veinsmobility  posy  ETV
vector 89  InfoBusScenario.node[12].veinsmobility  acceleration  ETV
vector 90  InfoBusScenario.node[12].veinsmobility  co2emission  ETV
vector 95  InfoBusScenario.node[13].veinsmobility  speed  ETV
vector 100  InfoBusScenario.node[14].veinsmobility  posx  ETV
vector 101  InfoBusScenario.node[14].veinsmobility  posy  ETV
vector 96  InfoBusScenario.node[13].veinsmobility  acceleration  ETV
vector 97  InfoBusScenario.node[13].veinsmobility  co2emission  ETV
vector 102  InfoBusScenario.node[14].veinsmobility  speed  ETV
vector 107  InfoBusScenario.node[15].veinsmobility  posx  ETV
vector 108  InfoBusScenario.node[15].veinsmobility  posy  ETV
vector 103  InfoBusScenario.node[14].veinsmobility  acceleration  ETV
vector 104  InfoBusScenario.node[14].veinsmobility  co2emission  ETV
vector 109  InfoBusScenario.node[15].veinsmobility  speed  ETV
vector 114  InfoBusScenario.node[16].veinsmobility  posx  ETV
vector 115  InfoBusScenario.node[16].veinsmobility  posy  ETV
vector 110  InfoBusScenario.node[15].veinsmobility  acceleration  ETV
vector 111  InfoBusScenario.node[15].veinsmobility  co2emission  ETV
vector 116  InfoBusScenario.node[16].veinsmobility  speed  ETV
vector 121  InfoBusScenario.node[17].veinsmobility  posx  ETV
vector 122  InfoBusScenario.node[17].veinsmobility  posy  ETV
vector 117  InfoBusScenario.node[16].veinsmobility  acceleration  ETV
vector 118  InfoBusScenario.node[16].veinsmobility  co2emission  ETV
vector 123  InfoBusScenario.node[17].veinsmobility  speed  ETV
vector 128  InfoBusScenario.node[18].veinsmobility  posx  ETV
vector 129  InfoBusScenario.node[18].veinsmobility  posy  ETV
vector 124  InfoBusScenario.node[17].veinsmobility  acceleration  ETV
vector 125  InfoBusScenario.node[17].veinsmobility  co2emission  ETV
vector 130  InfoBusScenario.node[18].veinsmobility  speed  ETV
vector 135  InfoBusScenario.node[19].veinsmobility  posx  ETV
vector 136  InfoBusScenario.node[19].veinsmobility  posy  ETV
vector 131  InfoBusScenario.node[18].veinsmobility  acceleration  ETV
vector 132  InfoBusScenario.node[18].veinsmobility  co2emission  ETV
vector 137  InfoBusScenario.node[19].veinsmobility  speed  ETV
vector 142  InfoBusScenario.node[20].veinsmobility  posx  ETV
vector 143  InfoBusScenario.node[20].veinsmobility  posy  ETV
vector 138  InfoBusScenario.node[19].veinsmobility  acceleration  ETV
vector 139  InfoBusScenario.node[19].veinsmobility  co2emission  ETV
vector 144  InfoBusScenario.node[20].veinsmobility  speed  ETV
vector 149  InfoBusScenario.node[21].veinsmobility  posx  ETV
vector 150  InfoBusScenario.node[21].veinsmobility  posy  ETV
vector 145  InfoBusScenario.node[20].veinsmobility  acceleration  ETV
vector 146  InfoBusScenario.node[20].veinsmobility  co2emission  ETV
vector 151  InfoBusScenario.node[21].veinsmobility  speed  ETV
vector 156  InfoBusScenario.node[22].veinsmobility  posx  ETV
vector 157  InfoBusScenario.node[22].veinsmobility  posy  ETV
vector 152  InfoBusScenario.node[21].veinsmobility  acceleration  ETV
vector 153  InfoBusScenario.node[21].veinsmobility  co2emission  ETV
vector 158  InfoBusScenario.node[22].veinsmobility  speed  ETV
vector 159  InfoBusScenario.node[22].veinsmobility  acceleration  ETV
vector 160  InfoBusScenario.node[22].veinsmobility  co2emission  ETV
vector 163  InfoBusScenario.node[23].veinsmobility  posx  ETV
vector 164  InfoBusScenario.node[23].veinsmobility  posy  ETV
vector 165  InfoBusScenario.node[23].veinsmobility  speed  ETV
vector 170  InfoBusScenario.node[24].veinsmobility  posx  ETV
vector 171  InfoBusScenario.node[24].veinsmobility  posy  ETV
vector 166  InfoBusScenario.node[23].veinsmobility  acceleration  ETV
vector 167  InfoBusScenario.node[23].veinsmobility  co2emission  ETV
vector 172  InfoBusScenario.node[24].veinsmobility  speed  ETV
vector 177  InfoBusScenario.node[25].veinsmobility  posx  ETV
vector 178  InfoBusScenario.node[25].veinsmobility  posy  ETV
vector 173  InfoBusScenario.node[24].veinsmobility  acceleration  ETV
vector 174  InfoBusScenario.node[24].veinsmobility  co2emission  ETV
vector 179  InfoBusScenario.node[25].veinsmobility  speed  ETV
vector 184  InfoBusScenario.node[26].veinsmobility  posx  ETV
vector 185  InfoBusScenario.node[26].veinsmobility  posy  ETV
vector 180  InfoBusScenario.node[25].veinsmobility  acceleration  ETV
vector 181  InfoBusScenario.node[25].veinsmobility  co2emission  ETV
vector 186  InfoBusScenario.node[26].veinsmobility  speed  ETV
vector 191  InfoBusScenario.node[27].veinsmobility  posx  ETV
vector 192  InfoBusScenario.node[27].veinsmobility  posy  ETV
vector 187  InfoBusScenario.node[26].veinsmobility  acceleration  ETV
vector 188  InfoBusScenario.node[26].veinsmobility  co2emission  ETV
vector 193  InfoBusScenario.node[27].veinsmobility  speed  ETV
vector 198  InfoBusScenario.node[28].veinsmobility  posx  ETV
vector 199  InfoBusScenario.node[28].veinsmobility  posy  ETV
vector 194  InfoBusScenario.node[27].veinsmobility  acceleration  ETV
vector 195  InfoBusScenario.node[27].veinsmobility  co2emission  ETV
vector 200  InfoBusScenario.node[28].veinsmobility  speed  ETV
vector 205  InfoBusScenario.node[29].veinsmobility  posx  ETV
vector 206  InfoBusScenario.node[29].veinsmobility  posy  ETV
vector 201  InfoBusScenario.node[28].veinsmobility  acceleration  ETV
vector 202  InfoBusScenario.node[28].veinsmobility  co2emission  ETV
vector 207  InfoBusScenario.node[29].veinsmobility  speed  ETV
vector 212  InfoBusScenario.node[30].veinsmobility  posx  ETV
vector 213  InfoBusScenario.node[30].veinsmobility  posy  ETV
vector 219  InfoBusScenario.node[31].veinsmobility  posx  ETV
vector 220  InfoBusScenario.node[31].veinsmobility  posy  ETV
vector 208  InfoBusScenario.node[29].veinsmobility  acceleration  ETV
vector 209  InfoBusScenario.node[29].veinsmobility  co2emission  ETV
vector 214  InfoBusScenario.node[30].veinsmobility  speed  ETV
vector 221  InfoBusScenario.node[31].veinsmobility  speed  ETV
vector 226  InfoBusScenario.node[32].veinsmobility  posx  ETV
vector 227  InfoBusScenario.node[32].veinsmobility  posy  ETV
vector 215  InfoBusScenario.node[30].veinsmobility  acceleration  ETV
vector 216  InfoBusScenario.node[30].veinsmobility  co2emission  ETV
vector 222  InfoBusScenario.node[31].veinsmobility  acceleration  ETV
vector 223  InfoBusScenario.node[31].veinsmobility  co2emission  ETV
vector 228  InfoBusScenario.node[32].veinsmobility  speed  ETV
vector 233  InfoBusScenario.node[33].veinsmobility  posx  ETV
vector 234  InfoBusScenario.node[33].veinsmobility  posy  ETV
vector 229  InfoBusScenario.node[32].veinsmobility  acceleration  ETV
vector 230  InfoBusScenario.node[32].veinsmobility  co2emission  ETV
vector 235  InfoBusScenario.node[33].veinsmobility  speed  ETV
vector 240  InfoBusScenario.node[34].veinsmobility  posx  ETV
vector 241  InfoBusScenario.node[34].veinsmobility  posy  ETV
vector 236  InfoBusScenario.node[33].veinsmobility  acceleration  ETV
vector 237  InfoBusScenario.node[33].veinsmobility  co2emission  ETV
vector 242  InfoBusScenario.node[34].veinsmobility  speed  ETV
vector 247  InfoBusScenario.node[35].veinsmobility  posx  ETV
vector 248  InfoBusScenario.node[35].veinsmobility  posy  ETV
vector 243  InfoBusScenario.node[34].veinsmobility  acceleration  ETV
vector 244  InfoBusScenario.node[34].veinsmobility  co2emission  ETV
vector 249  InfoBusScenario.node[35].veinsmobility  speed  ETV
vector 254  InfoBusScenario.node[36].veinsmobility  posx  ETV
vector 255  InfoBusScenario.node[36].veinsmobility  posy  ETV
vector 250  InfoBusScenario.node[35].veinsmobility  acceleration  ETV
vector 251  InfoBusScenario.node[35].veinsmobility  co2emission  ETV
vector 256  InfoBusScenario.node[36].veinsmobility  speed  ETV
vector 261  InfoBusScenario.node[37].veinsmobility  posx  ETV
vector 262  InfoBusScenario.node[37].veinsmobility  posy  ETV
vector 257  InfoBusScenario.node[36].veinsmobility  acceleration  ETV
vector 258  InfoBusScenario.node[36].veinsmobility  co2emission  ETV
vector 263  InfoBusScenario.node[37].veinsmobility  speed  ETV
vector 268  InfoBusScenario.node[38].veinsmobility  posx  ETV
vector 269  InfoBusScenario.node[38].veinsmobility  posy  ETV
vector 264  InfoBusScenario.node[37].veinsmobility  acceleration  ETV
vector 265  InfoBusScenario.node[37].veinsmobility  co2emission  ETV
vector 270  InfoBusScenario.node[38].veinsmobility  speed  ETV
vector 275  InfoBusScenario.pedestrian[0].veinsmobility  posx  ETV
vector 276  InfoBusScenario.pedestrian[0].veinsmobility  posy  ETV
vector 280  InfoBusScenario.node[39].veinsmobility  posx  ETV
vector 281  InfoBusScenario.node[39].veinsmobility  posy  ETV
vector 271  InfoBusScenario.node[38].veinsmobility  acceleration  ETV
vector 272  InfoBusScenario.node[38].veinsmobility  co2emission  ETV
vector 282  InfoBusScenario.node[39].veinsmobility  speed  ETV
vector 287  InfoBusScenario.node[40].veinsmobility  posx  ETV
vector 288  InfoBusScenario.node[40].veinsmobility  posy  ETV
vector 283  InfoBusScenario.node[39].veinsmobility  acceleration  ETV
vector 284  InfoBusScenario.node[39].veinsmobility  co2emission  ETV
vector 289  InfoBusScenario.node[40].veinsmobility  speed  ETV
vector 294  InfoBusScenario.node[41].veinsmobility  posx  ETV
vector 295  InfoBusScenario.node[41].veinsmobility  posy  ETV
vector 290  InfoBusScenario.node[40].veinsmobility  acceleration  ETV
vector 291  InfoBusScenario.node[40].veinsmobility  co2emission  ETV
vector 296  InfoBusScenario.node[41].veinsmobility  speed  ETV
vector 301  InfoBusScenario.node[42].veinsmobility  posx  ETV
vector 302  InfoBusScenario.node[42].veinsmobility  posy  ETV
vector 297  InfoBusScenario.node[41].veinsmobility  acceleration  ETV
vector 298  InfoBusScenario.node[41].veinsmobility  co2emission  ETV
vector 303  InfoBusScenario.node[42].veinsmobility  speed  ETV
vector 308  InfoBusScenario.node[43].veinsmobility  posx  ETV
vector 309  InfoBusScenario.node[43].veinsmobility  posy  ETV
vector 304  InfoBusScenario.node[42].veinsmobility  acceleration  ETV
vector 305  InfoBusScenario.node[42].veinsmobility  co2emission  ETV
vector 310  InfoBusScenario.node[43].veinsmobility  speed  ETV
vector 315  InfoBusScenario.node[44].veinsmobility  posx  ETV
vector 316  InfoBusScenario.node[44].veinsmobility  posy  ETV
vector 311  InfoBusScenario.node[43].veinsmobility  acceleration  ETV
vector 312  InfoBusScenario.node[43].veinsmobility  co2emission  ETV
vector 317  InfoBusScenario.node[44].veinsmobility  speed  ETV
34	14912 1743 4 79 1.5 39 76 0.973 8.8053478148037 231.15948982328 1079.6298668607
33	16655 1985 4 79 1.5 39 76 -3.4770010142619 2.6 10.002672297905 251.90013344785
32	18640 1967 3 79 1 39 77 1.9984376355134 13.877150025701 741.86560252056 8359.7840663053
31	20607 1994 2 79 0.5 39 78 14240.099513617 14424.793151468 1117852.6601688 16020785526.313
30	22601 1991 2 79 0.5 39 78 37048.077865304 37316.981337699 2898410.9994443 107702937205.21
vector 322  InfoBusScenario.node[45].veinsmobility  posx  ETV
vector 323  InfoBusScenario.node[45].veinsmobility  posy  ETV
vector 329  InfoBusScenario.node[46].veinsmobility  posx  ETV
vector 330  InfoBusScenario.node[46].veinsmobility  posy  ETV
vector 318  InfoBusScenario.node[44].veinsmobility  acceleration  ETV
vector 319  InfoBusScenario.node[44].veinsmobility  co2emission  ETV
vector 331  InfoBusScenario.node[46].veinsmobility  speed  ETV
vector 324  InfoBusScenario.node[45].veinsmobility  speed  ETV
vector 336  InfoBusScenario.node[47].veinsmobility  posx  ETV
vector 337  InfoBusScenario.node[47].veinsmobility  posy  ETV
vector 332  InfoBusScenario.node[46].veinsmobility  acceleration  ETV
vector 333  InfoBusScenario.node[46].veinsmobility  co2emission  ETV
vector 325  InfoBusScenario.node[45].veinsmobility  acceleration  ETV
vector 326  InfoBusScenario.node[45].veinsmobility  co2emission  ETV
vector 338  InfoBusScenario.node[47].veinsmobility  speed  ETV
vector 343  InfoBusScenario.node[48].veinsmobility  posx  ETV
vector 344  InfoBusScenario.node[48].veinsmobility  posy  ETV
vector 339  InfoBusScenario.node[47].veinsmobility  acceleration  ETV
vector 340  InfoBusScenario.node[47].veinsmobility  co2emission  ETV
vector 345  InfoBusScenario.node[48].veinsmobility  speed  ETV
vector 350  InfoBusScenario.node[49].veinsmobility  posx  ETV
vector 351  InfoBusScenario.node[49].veinsmobility  posy  ETV
vector 346  InfoBusScenario.node[48].veinsmobility  acceleration  ETV
vector 347  InfoBusScenario.node[48].veinsmobility  co2emission  ETV
vector 352  InfoBusScenario.node[49].veinsmobility  speed  ETV
vector 357  InfoBusScenario.node[50].veinsmobility  posx  ETV
vector 358  InfoBusScenario.node[50].veinsmobility  posy  ETV
vector 353  InfoBusScenario.node[49].veinsmobility  acceleration  ETV
vector 354  InfoBusScenario.node[49].veinsmobility  co2emission  ETV
vector 359  InfoBusScenario.node[50].veinsmobility  speed  ETV
vector 364  InfoBusScenario.node[51].veinsmobility  posx  ETV
vector 365  InfoBusScenario.node[51].veinsmobility  posy  ETV
vector 360  InfoBusScenario.node[50].veinsmobility  acceleration  ETV
vector 361  InfoBusScenario.node[50].veinsmobility  co2emission  ETV
vector 366  InfoBusScenario.node[51].veinsmobility  speed  ETV
vector 371  InfoBusScenario.node[52].veinsmobility  posx  ETV
vector 372  InfoBusScenario.node[52].veinsmobility  posy  ETV
vector 378  InfoBusScenario.node[53].veinsmobility  posx  ETV
vector 379  InfoBusScenario.node[53].veinsmobility  posy  ETV
vector 385  InfoBusScenario.node[54].veinsmobility  posx  ETV
vector 386  InfoBusScenario.node[54].veinsmobility  posy  ETV
vector 392  InfoBusScenario.node[55].veinsmobility  posx  ETV
vector 393  InfoBusScenario.node[55].veinsmobility  posy  ETV
vector 367  InfoBusScenario.node[51].veinsmobility  acceleration  ETV
vector 368  InfoBusScenario.node[51].veinsmobility  co2emission  ETV
vector 373  InfoBusScenario.node[52].veinsmobility  speed  ETV
vector 380  InfoBusScenario.node[53].veinsmobility  speed  ETV
vector 387  InfoBusScenario.node[54].veinsmobility  speed  ETV
vector 394  InfoBusScenario.node[55].veinsmobility  speed  ETV
vector 399  InfoBusScenario.node[56].veinsmobility  posx  ETV
vector 400  InfoBusScenario.node[56].veinsmobility  posy  ETV
vector 374  InfoBusScenario.node[52].veinsmobility  acceleration  ETV
vector 375  InfoBusScenario.node[52].veinsmobility  co2emission  ETV
vector 381  InfoBusScenario.node[53].veinsmobility  acceleration  ETV
vector 382  InfoBusScenario.node[53].veinsmobility  co2emission  ETV
vector 388  InfoBusScenario.node[54].veinsmobility  acceleration  ETV
vector 389  InfoBusScenario.node[54].veinsmobility  co2emission  ETV
vector 395  InfoBusScenario.node[55].veinsmobility  acceleration  ETV
vector 396  InfoBusScenario.node[55].veinsmobility  co2emission  ETV
vector 401  InfoBusScenario.node[56].veinsmobility  speed  ETV
vector 406  InfoBusScenario.node[57].veinsmobility  posx  ETV
vector 407  InfoBusScenario.node[57].veinsmobility  posy  ETV
vector 402  InfoBusScenario.node[56].veinsmobility  acceleration  ETV
vector 403  InfoBusScenario.node[56].veinsmobility  co2emission  ETV
vector 408  InfoBusScenario.node[57].veinsmobility  speed  ETV
vector 413  InfoBusScenario.node[58].veinsmobility  posx  ETV
vector 414  InfoBusScenario.node[58].veinsmobility  posy  ETV
vector 409  InfoBusScenario.node[57].veinsmobility  acceleration  ETV
vector 410  InfoBusScenario.node[57].veinsmobility  co2emission  ETV
vector 415  InfoBusScenario.node[58].veinsmobility  speed  ETV
vector 420  InfoBusScenario.node[59].veinsmobility  posx  ETV
vector 421  InfoBusScenario.node[59].veinsmobility  posy  ETV
vector 416  InfoBusScenario.node[58].veinsmobility  acceleration  ETV
vector 417  InfoBusScenario.node[58].veinsmobility  co2emission  ETV
vector 422  InfoBusScenario.node[59].veinsmobility  speed  ETV
vector 427  InfoBusScenario.node[60].veinsmobility  posx  ETV
vector 428  InfoBusScenario.node[60].veinsmobility  posy  ETV
vector 434  InfoBusScenario.node[61].veinsmobility  posx  ETV
vector 435  InfoBusScenario.node[61].veinsmobility  posy  ETV
vector 441  InfoBusScenario.node[62].veinsmobility  posx  ETV
vector 442  InfoBusScenario.node[62].veinsmobility  posy  ETV
vector 423  InfoBusScenario.node[59].veinsmobility  acceleration  ETV
vector 424  InfoBusScenario.node[59].veinsmobility  co2emission  ETV
vector 429  InfoBusScenario.node[60].veinsmobility  speed  ETV
vector 436  InfoBusScenario.node[61].veinsmobility  speed  ETV
vector 443  InfoBusScenario.node[62].veinsmobility  speed  ETV
vector 448  InfoBusScenario.node[63].veinsmobility  posx  ETV
vector 449  InfoBusScenario.node[63].veinsmobility  posy  ETV
vector 430  InfoBusScenario.node[60].veinsmobility  acceleration  ETV
vector 431  InfoBusScenario.node[60].veinsmobility  co2emission  ETV
vector 437  InfoBusScenario.node[61].veinsmobility  acceleration  ETV
vector 438  InfoBusScenario.node[61].veinsmobility  co2emission  ETV
vector 444  InfoBusScenario.node[62].veinsmobility  acceleration  ETV
vector 445  InfoBusScenario.node[62].veinsmobility  co2emission  ETV
vector 450  InfoBusScenario.node[63].veinsmobility  speed  ETV
vector 455  InfoBusScenario.node[64].veinsmobility  posx  ETV
vector 456  InfoBusScenario.node[64].veinsmobility  posy  ETV
vector 451  InfoBusScenario.node[63].veinsmobility  acceleration  ETV
vector 452  InfoBusScenario.node[63].veinsmobility  co2emission  ETV
vector 457  InfoBusScenario.node[64].veinsmobility  speed  ETV
vector 462  InfoBusScenario.node[65].veinsmobility  posx  ETV
vector 463  InfoBusScenario.node[65].veinsmobility  posy  ETV
vector 458  InfoBusScenario.node[64].veinsmobility  acceleration  ETV
vector 459  InfoBusScenario.node[64].veinsmobility  co2emission  ETV
vector 464  InfoBusScenario.node[65].veinsmobility  speed  ETV
vector 469  InfoBusScenario.node[66].veinsmobility  posx  ETV
vector 470  InfoBusScenario.node[66].veinsmobility  posy  ETV
vector 465  InfoBusScenario.node[65].veinsmobility  acceleration  ETV
vector 466  InfoBusScenario.node[65].veinsmobility  co2emission  ETV
vector 471  InfoBusScenario.node[66].veinsmobility  speed  ETV
vector 476  InfoBusScenario.node[67].veinsmobility  posx  ETV
vector 477  InfoBusScenario.node[67].veinsmobility  posy  ETV
vector 472  InfoBusScenario.node[66].veinsmobility  acceleration  ETV
vector 473  InfoBusScenario.node[66].veinsmobility  co2emission  ETV
vector 478  InfoBusScenario.node[67].veinsmobility  speed  ETV
vector 483  InfoBusScenario.node[68].veinsmobility  posx  ETV
vector 484  InfoBusScenario.node[68].veinsmobility  posy  ETV
vector 479  InfoBusScenario.node[67].veinsmobility  acceleration  ETV
vector 480  InfoBusScenario.node[67].veinsmobility  co2emission  ETV
vector 485  InfoBusScenario.node[68].veinsmobility  speed  ETV
vector 490  InfoBusScenario.node[69].veinsmobility  posx  ETV
vector 491  InfoBusScenario.node[69].veinsmobility  posy  ETV
vector 486  InfoBusScenario.node[68].veinsmobility  acceleration  ETV
vector 487  InfoBusScenario.node[68].veinsmobility  co2emission  ETV
vector 492  InfoBusScenario.node[69].veinsmobility  speed  ETV
vector 497  InfoBusScenario.node[70].veinsmobility  posx  ETV
vector 498  InfoBusScenario.node[70].veinsmobility  posy  ETV
vector 493  InfoBusScenario.node[69].veinsmobility  acceleration  ETV
vector 494  InfoBusScenario.node[69].veinsmobility  co2emission  ETV
431	33005 369 104 118 51.5 58.5 15 0.973 5.6095539847686 48.675178769609 204.36215146533
430	33374 413 104 118 51.5 58.5 15 -2.8188913700027 2.6 10.07828737947 70.723335219032
429	33787 447 103 118 51 58.5 16 2.0261679768365 8.8627628990673 91.886035621613 587.91787297583
428	34234 474 102 118 50.5 58.5 17 8376.8835193821 8391.1791590808 142506.72200224 1194598411.9804
427	34708 475 102 118 50.5 58.5 17 35390.746040457 35428.768984502 601922.31944026 21312384167.266
vector 499  InfoBusScenario.node[70].veinsmobility  speed  ETV
vector 504  InfoBusScenario.node[71].veinsmobility  posx  ETV
vector 505  InfoBusScenario.node[71].veinsmobility  posy  ETV
vector 500  InfoBusScenario.node[70].veinsmobility  acceleration  ETV
vector 501  InfoBusScenario.node[70].veinsmobility  co2emission  ETV
vector 506  InfoBusScenario.node[71].veinsmobility  speed  ETV
vector 511  InfoBusScenario.node[72].veinsmobility  posx  ETV
vector 512  InfoBusScenario.node[72].veinsmobility  posy  ETV
vector 507  InfoBusScenario.node[71].veinsmobility  acceleration  ETV
vector 508  InfoBusScenario.node[71].veinsmobility  co2emission  ETV
vector 513  InfoBusScenario.node[72].veinsmobility  speed  ETV
vector 518  InfoBusScenario.node[73].veinsmobility  posx  ETV
vector 519  InfoBusScenario.node[73].veinsmobility  posy  ETV
vector 514  InfoBusScenario.node[72].veinsmobility  acceleration  ETV
vector 515  InfoBusScenario.node[72].veinsmobility  co2emission  ETV
vector 520  InfoBusScenario.node[73].veinsmobility  speed  ETV
vector 525  InfoBusScenario.node[74].veinsmobility  posx  ETV
vector 526  InfoBusScenario.node[74].veinsmobility  posy  ETV
vector 521  InfoBusScenario.node[73].veinsmobility  acceleration  ETV
vector 522  InfoBusScenario.node[73].veinsmobility  co2emission  ETV
vector 527  InfoBusScenario.node[74].veinsmobility  speed  ETV
vector 532  InfoBusScenario.node[75].veinsmobility  posx  ETV
vector 533  InfoBusScenario.node[75].veinsmobility  posy  ETV
vector 528  InfoBusScenario.node[74].veinsmobility  acceleration  ETV
vector 529  InfoBusScenario.node[74].veinsmobility  co2emission  ETV
vector 534  InfoBusScenario.node[75].veinsmobility  speed  ETV
vector 539  InfoBusScenario.node[76].veinsmobility  posx  ETV
vector 540  InfoBusScenario.node[76].veinsmobility  posy  ETV
vector 535  InfoBusScenario.node[75].veinsmobility  acceleration  ETV
vector 536  InfoBusScenario.node[75].veinsmobility  co2emission  ETV
vector 541  InfoBusScenario.node[76].veinsmobility  speed  ETV
vector 546  InfoBusScenario.node[77].veinsmobility  posx  ETV
vector 547  InfoBusScenario.node[77].veinsmobility  posy  ETV
vector 542  InfoBusScenario.node[76].veinsmobility  acceleration  ETV
vector 543  InfoBusScenario.node[76].veinsmobility  co2emission  ETV
vector 548  InfoBusScenario.node[77].veinsmobility  speed  ETV
vector 553  InfoBusScenario.node[78].veinsmobility  posx  ETV
vector 554  InfoBusScenario.node[78].veinsmobility  posy  ETV
vector 549  InfoBusScenario.node[77].veinsmobility  acceleration  ETV
vector 550  InfoBusScenario.node[77].veinsmobility  co2emission  ETV
vector 555  InfoBusScenario.node[78].veinsmobility  speed  ETV
vector 560  InfoBusScenario.node[79].veinsmobility  posx  ETV
vector 561  InfoBusScenario.node[79].veinsmobility  posy  ETV
vector 556  InfoBusScenario.node[78].veinsmobility  acceleration  ETV
vector 557  InfoBusScenario.node[78].veinsmobility  co2emission  ETV
vector 562  InfoBusScenario.node[79].veinsmobility  speed  ETV
vector 567  InfoBusScenario.node[80].veinsmobility  posx  ETV
vector 568  InfoBusScenario.node[80].veinsmobility  posy  ETV
vector 563  InfoBusScenario.node[79].veinsmobility  acceleration  ETV
vector 564  InfoBusScenario.node[79].veinsmobility  co2emission  ETV
vector 569  InfoBusScenario.node[80].veinsmobility  speed  ETV
2	38506 3453 2 139 0.5 69 138 36934.026338752 37364.821082893 5125409.3065594 190362783324.78
3	41959 3449 2 139 0.5 69 138 15922.948670285 16361.53945616 2235497.7859547 36215550463.45
4	45408 3422 3 139 1 69 137 2.07598186382 27.770241158274 1660.9679480821 23763.026558493
5	48830 3501 4 139 1.5 69 136 -3.5870700315306 2.6 51.167873256041 362.72724333711
6	52331 3188 4 139 1.5 69 136 0.973 16.449708284432 558.34198156643 4154.4103493934
9	55519 3451 2 139 0.5 69 138 36987.564227792 37180.431115095 5119081.1349265 189891694173.84
10	58970 3593 2 139 0.5 69 138 11808.877742848 12195.216135326 1658576.3879709 19935693158.212
11	62563 3558 3 139 1 69 137 1.5435239795994 11.999208674813 1480.6162964657 16840.723303671
12	66121 3788 4 139 1.5 69 136 -3.3657456841327 1.7234593484085 20.790000695003 103.74530028123
13	69909 3474 4 139 1.5 69 136 0.973 6.1098609886403 305.67989888359 848.91366465357
16	73383 3589 2 139 0.5 69 138 37371.197657107 37515.236138686 5167005.1557076 193463589360.18
17	76972 3586 2 139 0.5 69 138 10411.683026984 11218.731832873 1499851.0047409 16310036238.137
18	80558 3556 3 139 1 69 137 1.9791591484864 13.999729095947 1765.3538568468 23778.388785725
19	84114 3801 4 139 1.5 69 136 -2.5374932986443 2.6 24.031090364927 89.970507885002
20	87915 3504 4 139 1.5 69 136 0.973 9.6638246992666 327.003670109 1013.7156934288
23	91419 3577 2 139 0.5 69 138 38554.001022375 39158.205587813 5379686.9546023 209722053664.97
24	94996 3577 2 139 0.5 69 138 13138.921376802 13374.017041266 1822383.4308793 24066618026.537
25	98573 3563 3 139 1 69 137 2.0740113576899 17.998897718005 1738.9286803694 25757.422068861
26	102136 3626 4 139 1.5 69 136 -3.7826837877852 2.6 31.646216105539 462.1531757513
27	105762 3246 4 139 1.5 69 136 0.973 11.74790817499 530.1015659358 3160.0496544593
37	109008 3584 2 139 0.5 69 138 38148.933032191 38673.766319551 5305414.6231498 203971176695.23
38	112592 3578 2 139 0.5 69 138 12664.705058948 13114.740414196 1784267.2129903 23072897405.38
39	116170 3566 3 139 1 69 137 0.18964952133007 13.999149790469 1522.8781246147 19333.922008364
40	119736 3726 4 139 1.5 69 136 -3.4268637646646 2.6 23.713597209192 276.01786739275
41	123462 3328 4 139 1.5 69 136 0.973 8.679212809435 381.56784107692 1607.6159275323
44	126790 3584 2 139 0.5 69 138 35241.419514399 35624.340299969 4887038.03714 173067935932.73