file 534186 1425133940                                          
version 2
run debug-0-20150228-11:31:40-19434
attr configname debug
attr datetime 20150228-11:31:40
attr experiment debug
attr inifile BusScenario.ini
attr iterationvars ""
attr iterationvars2 $repetition=0
attr measurement ""
attr network PedestrianScenario
attr processid 19434
attr repetition 0
attr replication #0
attr resultdir results
attr runnumber 0
attr seedset 0

vector 2  PedestrianScenario.node[0].veinsmobility  posx  ETV
vector 3  PedestrianScenario.node[0].veinsmobility  posy  ETV
vector 9  PedestrianScenario.node[1].veinsmobility  posx  ETV
vector 10  PedestrianScenario.node[1].veinsmobility  posy  ETV
vector 16  PedestrianScenario.node[2].veinsmobility  posx  ETV
vector 17  PedestrianScenario.node[2].veinsmobility  posy  ETV
vector 23  PedestrianScenario.node[3].veinsmobility  posx  ETV
vector 24  PedestrianScenario.node[3].veinsmobility  posy  ETV
vector 30  PedestrianScenario.node[4].veinsmobility  posx  ETV
vector 31  PedestrianScenario.node[4].veinsmobility  posy  ETV
vector 37  PedestrianScenario.node[5].veinsmobility  posx  ETV
vector 38  PedestrianScenario.node[5].veinsmobility  posy  ETV
vector 44  PedestrianScenario.node[6].veinsmobility  posx  ETV
vector 45  PedestrianScenario.node[6].veinsmobility  posy  ETV
vector 51  PedestrianScenario.node[7].veinsmobility  posx  ETV
vector 52  PedestrianScenario.node[7].veinsmobility  posy  ETV
vector 58  PedestrianScenario.node[8].veinsmobility  posx  ETV
vector 59  PedestrianScenario.node[8].veinsmobility  posy  ETV
vector 65  PedestrianScenario.node[9].veinsmobility  posx  ETV
vector 66  PedestrianScenario.node[9].veinsmobility  posy  ETV
vector 72  PedestrianScenario.node[10].veinsmobility  posx  ETV
vector 73  PedestrianScenario.node[10].veinsmobility  posy  ETV
vector 4  PedestrianScenario.node[0].veinsmobility  speed  ETV
vector 11  PedestrianScenario.node[1].veinsmobility  speed  ETV
vector 18  PedestrianScenario.node[2].veinsmobility  speed  ETV
vector 25  PedestrianScenario.node[3].veinsmobility  speed  ETV
vector 32  PedestrianScenario.node[4].veinsmobility  speed  ETV
vector 39  PedestrianScenario.node[5].veinsmobility  speed  ETV
vector 46  PedestrianScenario.node[6].veinsmobility  speed  ETV
vector 53  PedestrianScenario.node[7].veinsmobility  speed  ETV
vector 60  PedestrianScenario.node[8].veinsmobility  speed  ETV
vector 67  PedestrianScenario.node[9].veinsmobility  speed  ETV
vector 74  PedestrianScenario.node[10].veinsmobility  speed  ETV
vector 79  PedestrianScenario.node[11].veinsmobility  posx  ETV
vector 80  PedestrianScenario.node[11].veinsmobility  posy  ETV
vector 5  PedestrianScenario.node[0].veinsmobility  acceleration  ETV
vector 6  PedestrianScenario.node[0].veinsmobility  co2emission  ETV
vector 12  PedestrianScenario.node[1].veinsmobility  acceleration  ETV
vector 13  PedestrianScenario.node[1].veinsmobility  co2emission  ETV
vector 19  PedestrianScenario.node[2].veinsmobility  acceleration  ETV
vector 20  PedestrianScenario.node[2].veinsmobility  co2emission  ETV
vector 26  PedestrianScenario.node[3].veinsmobility  acceleration  ETV
vector 27  PedestrianScenario.node[3].veinsmobility  co2emission  ETV
vector 33  PedestrianScenario.node[4].veinsmobility  acceleration  ETV
vector 34  PedestrianScenario.node[4].veinsmobility  co2emission  ETV
vector 40  PedestrianScenario.node[5].veinsmobility  acceleration  ETV
vector 41  PedestrianScenario.node[5].veinsmobility  co2emission  ETV
vector 47  PedestrianScenario.node[6].veinsmobility  acceleration  ETV
vector 48  PedestrianScenario.node[6].veinsmobility  co2emission  ETV
vector 54  PedestrianScenario.node[7].veinsmobility  acceleration  ETV
vector 55  PedestrianScenario.node[7].veinsmobility  co2emission  ETV
vector 61  PedestrianScenario.node[8].veinsmobility  acceleration  ETV
vector 62  PedestrianScenario.node[8].veinsmobility  co2emission  ETV
vector 68  PedestrianScenario.node[9].veinsmobility  acceleration  ETV
vector 69  PedestrianScenario.node[9].veinsmobility  co2emission  ETV
vector 75  PedestrianScenario.node[10].veinsmobility  acceleration  ETV
vector 76  PedestrianScenario.node[10].veinsmobility  co2emission  ETV
vector 81  PedestrianScenario.node[11].veinsmobility  speed  ETV
vector 86  PedestrianScenario.node[12].veinsmobility  posx  ETV
vector 87  PedestrianScenario.node[12].veinsmobility  posy  ETV
vector 82  PedestrianScenario.node[11].veinsmobility  acceleration  ETV
vector 83  PedestrianScenario.node[11].veinsmobility  co2emission  ETV
vector 88  PedestrianScenario.node[12].veinsmobility  speed  ETV
vector 93  PedestrianScenario.node[13].veinsmobility  posx  ETV
vector 94  PedestrianScenario.node[13].veinsmobility  posy  ETV
vector 89  PedestrianScenario.node[12].veinsmobility  acceleration  ETV
vector 90  PedestrianScenario.node[12].veinsmobility  co2emission  ETV
vector 100  PedestrianScenario.node[14].veinsmobility  posx  ETV
vector 101  PedestrianScenario.node[14].veinsmobility  posy  ETV
vector 107  PedestrianScenario.node[15].veinsmobility  posx  ETV
vector 108  PedestrianScenario.node[15].veinsmobility  posy  ETV
vector 95  PedestrianScenario.node[13].veinsmobility  speed  ETV
vector 114  PedestrianScenario.node[16].veinsmobility  posx  ETV
vector 115  PedestrianScenario.node[16].veinsmobility  posy  ETV
vector 96  PedestrianScenario.node[13].veinsmobility  acceleration  ETV
vector 97  PedestrianScenario.node[13].veinsmobility  co2emission  ETV
vector 102  PedestrianScenario.node[14].veinsmobility  speed  ETV
vector 109  PedestrianScenario.node[15].veinsmobility  speed  ETV
vector 103  PedestrianScenario.node[14].veinsmobility  acceleration  ETV
vector 104  PedestrianScenario.node[14].veinsmobility  co2emission  ETV
vector 110  PedestrianScenario.node[15].veinsmobility  acceleration  ETV
vector 111  PedestrianScenario.node[15].veinsmobility  co2emission  ETV
vector 116  PedestrianScenario.node[16].veinsmobility  speed  ETV
vector 121  PedestrianScenario.node[17].veinsmobility  posx  ETV
vector 122  PedestrianScenario.node[17].veinsmobility  posy  ETV
vector 117  PedestrianScenario.node[16].veinsmobility  acceleration  ETV
vector 118  PedestrianScenario.node[16].veinsmobility  co2emission  ETV
vector 123  PedestrianScenario.node[17].veinsmobility  speed  ETV
vector 128  PedestrianScenario.node[18].veinsmobility  posx  ETV
vector 129  PedestrianScenario.node[18].veinsmobility  posy  ETV
vector 124  PedestrianScenario.node[17].veinsmobility  acceleration  ETV
vector 125  PedestrianScenario.node[17].veinsmobility  co2emission  ETV
vector 130  PedestrianScenario.node[18].veinsmobility  speed  ETV
vector 135  PedestrianScenario.node[19].veinsmobility  posx  ETV
vector 136  PedestrianScenario.node[19].veinsmobility  posy  ETV
vector 142  PedestrianScenario.node[20].veinsmobility  posx  ETV
vector 143  PedestrianScenario.node[20].veinsmobility  posy  ETV
vector 131  PedestrianScenario.node[18].veinsmobility  acceleration  ETV
vector 132  PedestrianScenario.node[18].veinsmobility  co2emission  ETV
vector 137  PedestrianScenario.node[19].veinsmobility  speed  ETV
vector 144  PedestrianScenario.node[20].veinsmobility  speed  ETV
vector 149  PedestrianScenario.node[21].veinsmobility  posx  ETV
vector 150  PedestrianScenario.node[21].veinsmobility  posy  ETV
vector 138  PedestrianScenario.node[19].veinsmobility  acceleration  ETV
vector 139  PedestrianScenario.node[19].veinsmobility  co2emission  ETV
vector 145  PedestrianScenario.node[20].veinsmobility  acceleration  ETV
vector 146  PedestrianScenario.node[20].veinsmobility  co2emission  ETV
vector 151  PedestrianScenario.node[21].veinsmobility  speed  ETV
vector 156  PedestrianScenario.node[22].veinsmobility  posx  ETV
vector 157  PedestrianScenario.node[22].veinsmobility  posy  ETV
vector 152  PedestrianScenario.node[21].veinsmobility  acceleration  ETV
vector 153  PedestrianScenario.node[21].veinsmobility  co2emission  ETV
vector 158  PedestrianScenario.node[22].veinsmobility  speed  ETV
vector 163  PedestrianScenario.node[23].veinsmobility  posx  ETV
vector 164  PedestrianScenario.node[23].veinsmobility  posy  ETV
vector 170  PedestrianScenario.node[24].veinsmobility  posx  ETV
vector 171  PedestrianScenario.node[24].veinsmobility  posy  ETV
vector 159  PedestrianScenario.node[22].veinsmobility  acceleration  ETV
vector 160  PedestrianScenario.node[22].veinsmobility  co2emission  ETV
vector 165  PedestrianScenario.node[23].veinsmobility  speed  ETV
vector 172  PedestrianScenario.node[24].veinsmobility  speed  ETV
vector 177  PedestrianScenario.node[25].veinsmobility  posx  ETV
vector 178  PedestrianScenario.node[25].veinsmobility  posy  ETV
vector 166  PedestrianScenario.node[23].veinsmobility  acceleration  ETV
vector 167  PedestrianScenario.node[23].veinsmobility  co2emission  ETV
vector 173  PedestrianScenario.node[24].veinsmobility  acceleration  ETV
vector 174  PedestrianScenario.node[24].veinsmobility  co2emission  ETV
vector 179  PedestrianScenario.node[25].veinsmobility  speed  ETV
vector 184  PedestrianScenario.node[26].veinsmobility  posx  ETV
vector 185  PedestrianScenario.node[26].veinsmobility  posy  ETV
vector 180  PedestrianScenario.node[25].veinsmobility  acceleration  ETV
vector 181  PedestrianScenario.node[25].veinsmobility  co2emission  ETV
vector 186  PedestrianScenario.node[26].veinsmobility  speed  ETV
vector 191  PedestrianScenario.node[27].veinsmobility  posx  ETV
vector 192  PedestrianScenario.node[27].veinsmobility  posy  ETV
vector 187  PedestrianScenario.node[26].veinsmobility  acceleration  ETV
vector 188  PedestrianScenario.node[26].veinsmobility  co2emission  ETV
vector 198  PedestrianScenario.node[28].veinsmobility  posx  ETV
vector 199  PedestrianScenario.node[28].veinsmobility  posy  ETV
vector 193  PedestrianScenario.node[27].veinsmobility  speed  ETV
vector 205  PedestrianScenario.node[29].veinsmobility  posx  ETV
vector 206  PedestrianScenario.node[29].veinsmobility  posy  ETV
vector 194  PedestrianScenario.node[27].veinsmobility  acceleration  ETV
vector 195  PedestrianScenario.node[27].veinsmobility  co2emission  ETV
vector 200  PedestrianScenario.node[28].veinsmobility  speed  ETV
vector 201  PedestrianScenario.node[28].veinsmobility  acceleration  ETV
vector 202  PedestrianScenario.node[28].veinsmobility  co2emission  ETV
vector 207  PedestrianScenario.node[29].veinsmobility  speed  ETV
vector 212  PedestrianScenario.node[30].veinsmobility  posx  ETV
vector 213  PedestrianScenario.node[30].veinsmobility  posy  ETV
vector 208  PedestrianScenario.node[29].veinsmobility  acceleration  ETV
vector 209  PedestrianScenario.node[29].veinsmobility  co2emission  ETV
vector 214  PedestrianScenario.node[30].veinsmobility  speed  ETV
vector 219  PedestrianScenario.node[31].veinsmobility  posx  ETV
vector 220  PedestrianScenario.node[31].veinsmobility  posy  ETV
vector 215  PedestrianScenario.node[30].veinsmobility  acceleration  ETV
vector 216  PedestrianScenario.node[30].veinsmobility  co2emission  ETV
vector 221  PedestrianScenario.node[31].veinsmobility  speed  ETV
vector 222  PedestrianScenario.node[31].veinsmobility  acceleration  ETV
vector 223  PedestrianScenario.node[31].veinsmobility  co2emission  ETV
vector 226  PedestrianScenario.node[32].veinsmobility  posx  ETV
vector 227  PedestrianScenario.node[32].veinsmobility  posy  ETV
vector 228  PedestrianScenario.node[32].veinsmobility  speed  ETV
vector 233  PedestrianScenario.node[33].veinsmobility  posx  ETV
vector 234  PedestrianScenario.node[33].veinsmobility  posy  ETV
vector 229  PedestrianScenario.node[32].veinsmobility  acceleration  ETV
vector 230  PedestrianScenario.node[32].veinsmobility  co2emission  ETV
vector 235  PedestrianScenario.node[33].veinsmobility  speed  ETV
vector 240  PedestrianScenario.node[34].veinsmobility  posx  ETV
vector 241  PedestrianScenario.node[34].veinsmobility  posy  ETV
vector 247  PedestrianScenario.node[35].veinsmobility  posx  ETV
vector 248  PedestrianScenario.node[35].veinsmobility  posy  ETV
vector 236  PedestrianScenario.node[33].veinsmobility  acceleration  ETV
vector 237  PedestrianScenario.node[33].veinsmobility  co2emission  ETV
vector 242  PedestrianScenario.node[34].veinsmobility  speed  ETV
vector 249  PedestrianScenario.node[35].veinsmobility  speed  ETV
vector 254  PedestrianScenario.node[36].veinsmobility  posx  ETV
vector 255  PedestrianScenario.node[36].veinsmobility  posy  ETV
vector 243  PedestrianScenario.node[34].veinsmobility  acceleration  ETV
vector 244  PedestrianScenario.node[34].veinsmobility  co2emission  ETV
vector 250  PedestrianScenario.node[35].veinsmobility  acceleration  ETV
vector 251  PedestrianScenario.node[35].veinsmobility  co2emission  ETV
vector 256  PedestrianScenario.node[36].veinsmobility  speed  ETV
vector 261  PedestrianScenario.node[37].veinsmobility  posx  ETV
vector 262  PedestrianScenario.node[37].veinsmobility  posy  ETV
vector 257  PedestrianScenario.node[36].veinsmobility  acceleration  ETV
vector 258  PedestrianScenario.node[36].veinsmobility  co2emission  ETV
vector 263  PedestrianScenario.node[37].veinsmobility  speed  ETV
vector 268  PedestrianScenario.node[38].veinsmobility  posx  ETV
vector 269  PedestrianScenario.node[38].veinsmobility  posy  ETV
vector 264  PedestrianScenario.node[37].veinsmobility  acceleration  ETV
vector 265  PedestrianScenario.node[37].veinsmobility  co2emission  ETV
vector 270  PedestrianScenario.node[38].veinsmobility  speed  ETV
vector 275  PedestrianScenario.node[39].veinsmobility  posx  ETV
vector 276  PedestrianScenario.node[39].veinsmobility  posy  ETV
vector 271  PedestrianScenario.node[38].veinsmobility  acceleration  ETV
vector 272  PedestrianScenario.node[38].veinsmobility  co2emission  ETV
vector 277  PedestrianScenario.node[39].veinsmobility  speed  ETV
vector 282  PedestrianScenario.node[40].veinsmobility  posx  ETV
vector 283  PedestrianScenario.node[40].veinsmobility  posy  ETV
vector 289  PedestrianScenario.node[41].veinsmobility  posx  ETV
vector 290  PedestrianScenario.node[41].veinsmobility  posy  ETV
vector 278  PedestrianScenario.node[39].veinsmobility  acceleration  ETV
vector 279  PedestrianScenario.node[39].veinsmobility  co2emission  ETV
vector 284  PedestrianScenario.node[40].veinsmobility  speed  ETV
vector 291  PedestrianScenario.node[41].veinsmobility  speed  ETV
vector 296  PedestrianScenario.node[42].veinsmobility  posx  ETV
vector 297  PedestrianScenario.node[42].veinsmobility  posy  ETV
vector 285  PedestrianScenario.node[40].veinsmobility  acceleration  ETV
vector 286  PedestrianScenario.node[40].veinsmobility  co2emission  ETV
vector 292  PedestrianScenario.node[41].veinsmobility  acceleration  ETV
vector 293  PedestrianScenario.node[41].veinsmobility  co2emission  ETV
vector 298  PedestrianScenario.node[42].veinsmobility  speed  ETV
vector 303  PedestrianScenario.node[43].veinsmobility  posx  ETV
vector 304  PedestrianScenario.node[43].veinsmobility  posy  ETV
vector 299  PedestrianScenario.node[42].veinsmobility  acceleration  ETV
vector 300  PedestrianScenario.node[42].veinsmobility  co2emission  ETV
vector 305  PedestrianScenario.node[43].veinsmobility  speed  ETV
vector 310  PedestrianScenario.node[44].veinsmobility  posx  ETV
vector 311  PedestrianScenario.node[44].veinsmobility  posy  ETV
vector 306  PedestrianScenario.node[43].veinsmobility  acceleration  ETV
vector 307  PedestrianScenario.node[43].veinsmobility  co2emission  ETV
vector 312  PedestrianScenario.node[44].veinsmobility  speed  ETV
vector 317  PedestrianScenario.node[45].veinsmobility  posx  ETV
vector 318  PedestrianScenario.node[45].veinsmobility  posy  ETV
vector 313  PedestrianScenario.node[44].veinsmobility  acceleration  ETV
vector 314  PedestrianScenario.node[44].veinsmobility  co2emission  ETV
vector 319  PedestrianScenario.node[45].veinsmobility  speed  ETV
vector 324  PedestrianScenario.node[46].veinsmobility  posx  ETV
vector 325  PedestrianScenario.node[46].veinsmobility  posy  ETV
vector 331  PedestrianScenario.node[47].veinsmobility  posx  ETV
vector 332  PedestrianScenario.node[47].veinsmobility  posy  ETV
vector 320  PedestrianScenario.node[45].veinsmobility  acceleration  ETV
vector 321  PedestrianScenario.node[45].veinsmobility  co2emission  ETV
vector 326  PedestrianScenario.node[46].veinsmobility  speed  ETV
vector 333  PedestrianScenario.node[47].veinsmobility  speed  ETV
vector 338  PedestrianScenario.node[48].veinsmobility  posx  ETV
vector 339  PedestrianScenario.node[48].veinsmobility  posy  ETV
vector 327  PedestrianScenario.node[46].veinsmobility  acceleration  ETV
vector 328  PedestrianScenario.node[46].veinsmobility  co2emission  ETV
vector 334  PedestrianScenario.node[47].veinsmobility  acceleration  ETV
vector 335  PedestrianScenario.node[47].veinsmobility  co2emission  ETV
vector 340  PedestrianScenario.node[48].veinsmobility  speed  ETV
vector 345  PedestrianScenario.node[49].veinsmobility  posx  ETV
vector 346  PedestrianScenario.node[49].veinsmobility  posy  ETV
vector 341  PedestrianScenario.node[48].veinsmobility  acceleration  ETV
vector 342  PedestrianScenario.node[48].veinsmobility  co2emission  ETV
vector 347  PedestrianScenario.node[49].veinsmobility  speed  ETV
vector 352  PedestrianScenario.node[50].veinsmobility  posx  ETV
vector 353  PedestrianScenario.node[50].veinsmobility  posy  ETV
vector 348  PedestrianScenario.node[49].veinsmobility  acceleration  ETV
vector 349  PedestrianScenario.node[49].veinsmobility  co2emission  ETV
vector 354  PedestrianScenario.node[50].veinsmobility  speed  ETV
vector 359  PedestrianScenario.node[51].veinsmobility  posx  ETV
vector 360  PedestrianScenario.node[51].veinsmobility  posy  ETV
vector 355  PedestrianScenario.node[50].veinsmobility  acceleration  ETV
vector 356  PedestrianScenario.node[50].veinsmobility  co2emission  ETV
vector 361  PedestrianScenario.node[51].veinsmobility  speed  ETV
vector 366  PedestrianScenario.node[52].veinsmobility  posx  ETV
vector 367  PedestrianScenario.node[52].veinsmobility  posy  ETV
vector 362  PedestrianScenario.node[51].veinsmobility  acceleration  ETV
vector 363  PedestrianScenario.node[51].veinsmobility  co2emission  ETV
vector 368  PedestrianScenario.node[52].veinsmobility  speed  ETV
vector 373  PedestrianScenario.node[53].veinsmobility  posx  ETV
vector 374  PedestrianScenario.node[53].veinsmobility  posy  ETV
vector 369  PedestrianScenario.node[52].veinsmobility  acceleration  ETV
vector 370  PedestrianScenario.node[52].veinsmobility  co2emission  ETV
vector 375  PedestrianScenario.node[53].veinsmobility  speed  ETV
vector 380  PedestrianScenario.node[54].veinsmobility  posx  ETV
vector 381  PedestrianScenario.node[54].veinsmobility  posy  ETV
vector 376  PedestrianScenario.node[53].veinsmobility  acceleration  ETV
vector 377  PedestrianScenario.node[53].veinsmobility  co2emission  ETV
vector 382  PedestrianScenario.node[54].veinsmobility  speed  ETV
vector 387  PedestrianScenario.node[55].veinsmobility  posx  ETV
vector 388  PedestrianScenario.node[55].veinsmobility  posy  ETV
vector 383  PedestrianScenario.node[54].veinsmobility  acceleration  ETV
vector 384  PedestrianScenario.node[54].veinsmobility  co2emission  ETV
vector 389  PedestrianScenario.node[55].veinsmobility  speed  ETV
vector 394  PedestrianScenario.node[56].veinsmobility  posx  ETV
vector 395  PedestrianScenario.node[56].veinsmobility  posy  ETV
vector 390  PedestrianScenario.node[55].veinsmobility  acceleration  ETV
vector 391  PedestrianScenario.node[55].veinsmobility  co2emission  ETV
55	19474 1759 4 80 1.5 39.5 77 0.973 8.6079327954728 231.69642732351 1042.4442462428
54	21233 1995 4 80 1.5 39.5 77 -4.5 2.6 4.0648584780762 270.04077770846
53	23228 1996 3 80 1 39.5 78 2.0036613884683 13.884419185901 744.04806693298 8345.6111737724
52	25224 2019 2 80 0.5 39.5 79 14239.843758356 14424.796300193 1132141.7987204 16224966875.125
51	27243 2022 2 80 0.5 39.5 79 37048.079030633 37319.586775271 2935676.8371887 109091688451.84
vector 401  PedestrianScenario.node[57].veinsmobility  posx  ETV
vector 402  PedestrianScenario.node[57].veinsmobility  posy  ETV
vector 396  PedestrianScenario.node[56].veinsmobility  speed  ETV
vector 408  PedestrianScenario.node[58].veinsmobility  posx  ETV
vector 409  PedestrianScenario.node[58].veinsmobility  posy  ETV
vector 415  PedestrianScenario.node[59].veinsmobility  posx  ETV
vector 416  PedestrianScenario.node[59].veinsmobility  posy  ETV
vector 403  PedestrianScenario.node[57].veinsmobility  speed  ETV
vector 397  PedestrianScenario.node[56].veinsmobility  acceleration  ETV
vector 398  PedestrianScenario.node[56].veinsmobility  co2emission  ETV
vector 404  PedestrianScenario.node[57].veinsmobility  acceleration  ETV
vector 405  PedestrianScenario.node[57].veinsmobility  co2emission  ETV
vector 410  PedestrianScenario.node[58].veinsmobility  speed  ETV
vector 417  PedestrianScenario.node[59].veinsmobility  speed  ETV
vector 422  PedestrianScenario.node[60].veinsmobility  posx  ETV
vector 423  PedestrianScenario.node[60].veinsmobility  posy  ETV
vector 411  PedestrianScenario.node[58].veinsmobility  acceleration  ETV
vector 412  PedestrianScenario.node[58].veinsmobility  co2emission  ETV
vector 418  PedestrianScenario.node[59].veinsmobility  acceleration  ETV
vector 419  PedestrianScenario.node[59].veinsmobility  co2emission  ETV
vector 424  PedestrianScenario.node[60].veinsmobility  speed  ETV
vector 429  PedestrianScenario.node[61].veinsmobility  posx  ETV
vector 430  PedestrianScenario.node[61].veinsmobility  posy  ETV
vector 425  PedestrianScenario.node[60].veinsmobility  acceleration  ETV
vector 426  PedestrianScenario.node[60].veinsmobility  co2emission  ETV
vector 431  PedestrianScenario.node[61].veinsmobility  speed  ETV
vector 436  PedestrianScenario.node[62].veinsmobility  posx  ETV
vector 437  PedestrianScenario.node[62].veinsmobility  posy  ETV
vector 432  PedestrianScenario.node[61].veinsmobility  acceleration  ETV
vector 433  PedestrianScenario.node[61].veinsmobility  co2emission  ETV
vector 438  PedestrianScenario.node[62].veinsmobility  speed  ETV
vector 443  PedestrianScenario.node[63].veinsmobility  posx  ETV
vector 444  PedestrianScenario.node[63].veinsmobility  posy  ETV
vector 439  PedestrianScenario.node[62].veinsmobility  acceleration  ETV
vector 440  PedestrianScenario.node[62].veinsmobility  co2emission  ETV
vector 445  PedestrianScenario.node[63].veinsmobility  speed  ETV
vector 450  PedestrianScenario.node[64].veinsmobility  posx  ETV
vector 451  PedestrianScenario.node[64].veinsmobility  posy  ETV
vector 457  PedestrianScenario.node[65].veinsmobility  posx  ETV
vector 458  PedestrianScenario.node[65].veinsmobility  posy  ETV
vector 446  PedestrianScenario.node[63].veinsmobility  acceleration  ETV
vector 447  PedestrianScenario.node[63].veinsmobility  co2emission  ETV
vector 452  PedestrianScenario.node[64].veinsmobility  speed  ETV
vector 459  PedestrianScenario.node[65].veinsmobility  speed  ETV
vector 464  PedestrianScenario.node[66].veinsmobility  posx  ETV
vector 465  PedestrianScenario.node[66].veinsmobility  posy  ETV
vector 453  PedestrianScenario.node[64].veinsmobility  acceleration  ETV
vector 454  PedestrianScenario.node[64].veinsmobility  co2emission  ETV
vector 460  PedestrianScenario.node[65].veinsmobility  acceleration  ETV
vector 461  PedestrianScenario.node[65].veinsmobility  co2emission  ETV
vector 466  PedestrianScenario.node[66].veinsmobility  speed  ETV
vector 471  PedestrianScenario.node[67].veinsmobility  posx  ETV
vector 472  PedestrianScenario.node[67].veinsmobility  posy  ETV
vector 467  PedestrianScenario.node[66].veinsmobility  acceleration  ETV
vector 468  PedestrianScenario.node[66].veinsmobility  co2emission  ETV
vector 473  PedestrianScenario.node[67].veinsmobility  speed  ETV
vector 478  PedestrianScenario.node[68].veinsmobility  posx  ETV
vector 479  PedestrianScenario.node[68].veinsmobility  posy  ETV
vector 474  PedestrianScenario.node[67].veinsmobility  acceleration  ETV
vector 475  PedestrianScenario.node[67].veinsmobility  co2emission  ETV
vector 480  PedestrianScenario.node[68].veinsmobility  speed  ETV
2	33423 2414 2 99 0.5 49 98 37013.049037162 37365.320011307 3643938.7329561 135493901383.99
3	35837 2408 2 99 0.5 49 98 16128.937400361 16360.664618434 1594546.1335102 25945029909.352
4	38245 2393 3 99 1 49 97 2.073492967002 13.889640900127 1058.743303432 12925.110724915
5	40638 2462 4 99 1.5 49 96 -3.3576884266841 2.6 23.388613582631 214.95591132332
6	43100 2214 4 99 1.5 49 96 0.973 8.6406610735142 282.86064464099 1194.4990003839
9	45314 2413 2 99 0.5 49 98 36987.563218541 37163.92257396 3634924.5412421 134823616797.54
10	47727 2511 2 99 0.5 49 98 11808.875842215 12161.909528767 1177347.1118143 14145927678.607
11	50238 2541 3 99 1 49 97 5.2826347097455e-05 11.997424354055 788.94176311397 8818.1909937813
12	52779 2675 4 99 1.5 49 96 -3.2115934411391 1.7509949421044 -3.1993176530325 88.347641673299
13	55454 2318 4 99 1.5 49 96 0.973 6.3264480777078 185.24826494802 473.87673194692
16	57772 2516 2 99 0.5 49 98 37120.506504816 37412.938552744 3654836.6843976 136305548922.82
17	60288 2508 2 99 0.5 49 98 11617.842887813 11799.588680115 1150523.9430497 13507514955.538
18	62796 2486 3 99 1 49 97 1.6413954107584 11.998668388347 1006.1544709193 11143.842659435
19	65282 2605 4 99 1.5 49 96 -3.2647952430249 2 11.202801047327 135.50200375549
20	67887 2371 4 99 1.5 49 96 0.973 6.1036421466474 230.14693576519 712.32726762413
23	70258 2508 2 99 0.5 49 98 37172.20052732 37468.217396117 3654702.6479748 136295192222.44
24	72766 2510 2 99 0.5 49 98 12133.218813127 12349.707314525 1200916.5526783 14716717906.257
25	75276 2487 3 99 1 49 97 1.5308061666171 11.997104744753 989.4585505012 10926.612768341
26	77763 2578 4 99 1.5 49 96 -3.2761648694485 2 20.920070778096 113.16916023081
27	80341 2393 4 99 1.5 49 96 0.973 6.9513583315727 233.16433743459 728.64855135333
30	82734 2512 2 99 0.5 49 98 33805.661244657 33901.685436732 3317629.4688438 112312975904.78
31	85246 2508 2 99 0.5 49 98 6716.9530104427 6963.1321790781 666425.79791438 4532346257.0769
32	87754 2481 3 99 1 49 97 1.6177591556644 11.996782911127 818.29197685304 7884.5411207264
33	90235 2485 4 99 1.5 49 96 -3.3703298218883 2 20.70273386618 230.96097567603
34	92720 2259 4 99 1.5 49 96 0.973 5.7668748750196 267.00292331379 970.92908759237
37	94979 2513 2 99 0.5 49 98 37371.219539834 37472.554265899 3667260.0411715 137232698326.16
38	97492 2508 2 99 0.5 49 98 10687.261213489 11218.733369956 1078060.7506982 11862139838.501
39	100000 2484 3 99 1 49 97 2.0456564641884 13.999028669319 1207.8594974906 16026.518299511
40	102484 2621 4 99 1.5 49 96 -2.7133002458415 2.6 23.755834436729 79.47768051861
41	105105 2430 4 99 1.5 49 96 0.973 8.3613194195435 243.32088938719 809.01763369154
44	107535 2517 2 99 0.5 49 98 38917.061650139 39158.572533924 3830580.1072728 149728335518.32
45	110052 2510 2 99 0.5 49 98 13153.884089962 13374.016704288 1296317.9332047 17147985020.194
46	112562 2494 3 99 1 49 97 2.0812300971506 17.990213953683 1011.374023894 12623.235439328
47	115056 2472 4 99 1.5 49 96 -3.6737520084946 2.6 31.694976980885 467.39919186183
48	117528 2175 4 99 1.5 49 96 0.973 11.745534369795 431.42494608655 2890.4327514745
58	119703 2513 2 99 0.5 49 98 38308.296072019 38673.777547195 3776777.5354363 145552859398.68
59	122216 2508 2 99 0.5 49 98 12664.711210112 13070.714437292 1259946.0276758 16200076355.425
60	124724 2483 3 99 1 49 97 2.1102167612433 13.99776094761 1183.1787852901 15397.927662532
61	127207 2604 4 99 1.5 49 96 -3.4074449280007 2.6 23.610282191433 145.316409159
62	129811 2383 4 99 1.5 49 96 0.973 9.2130096416196 271.44933644738 1109.0571783838
65	132194 2508 2 99 0.5 49 98 35241.414164183 35495.870776499 3464670.5851235 122489670820.63
66	134702 2507 2 99 0.5 49 98 14200.25785497 14486.61456688 1401989.3313079 20057877132.177
67	137209 2484 3 99 1 49 97 2.0776639016261 11.998169250269 888.29422641247 9144.3856805844
68	139693 2538 4 99 1.5 49 96 -3.2573019159052 2.6 5.7110127137177 241.45450456282
69	142231 2272 4 99 1.5 49 96 0.973 8.2009230499217 245.27528001262 911.27154324178
72	144503 2510 2 99 0.5 49 98 34035.908404493 34100.415469312 3339172.1923523 113776264797.27
73	147013 2509 2 99 0.5 49 98 6578.4491237966 6673.0361737699 648394.65260326 4290044563.6203
74	149522 2489 3 99 1 49 97 1.5366641492876 2.7798883816879 263.16929478915 715.57842068904
75	152011 2689 4 99 1.5 49 96 -0.17479069349356 1.7503008872952 2.4721657797016 3.9161986321092
76	154700 2378 4 99 1.5 49 96 0.973 2.2449996288157 119.4918739602 150.61638024937
79	157078 2464 4 99 1.5 49 96 34983.983580571 35157.681883376 3370130.5802904 118310441760.54
80	159542 2463 4 99 1.5 49 96 9716.3731223164 9982.9048154035 944396.09614566 9291065760.3034
81	162005 2440 5 99 2 49 95 2.079727342963 11.999745033977 784.03768540591 7364.2545744166
82	164445 2424 6 99 2.5 49 94 -3.3983472726982 2.6 19.622172446999 341.5552545772
83	166869 2139 6 99 2.5 49 94 0.973 8.0502764865315 286.01395840793 1288.9637520275
86	169008 2417 6 99 2.5 49 94 36281.864792351 36310.938092587 3411307.1998901 123798060484.94
87	171425 2415 6 99 2.5 49 94 9019.9653869321 9422.0084582245 862101.1397073 7908152786.3014
88	173840 2387 7 99 3 49 93 2.0834585440038 11.998325392809 951.15070665889 10488.065798726
89	176227 2492 8 99 3.5 49 92 -2.7675509621814 2.6 19.636350821481 119.29917607834
90	178719 2280 8 99 3.5 49 92 0.973 7.0443829703651 218.5966237929 705.15540985619
93	180999 2366 8 99 3.5 49 92 37924.012489545 38063.853915602 3495443.0020693 132805848718.46
94	183365 2369 8 99 3.5 49 92 15441.45991888 15771.402094068 1431760.0587295 22282861566.437
95	185734 2344 9 99 4 49 91 2.0680808753437 13.888822200354 1044.1920345292 13089.74994475
96	188078 2426 10 99 4.5 49 90 -3.429775689057 2.6 3.3729248920564 204.56763839781
97	190504 2175 10 99 4.5 49 90 0.973 8.873538988887 249.99167096247 1061.6986654524