file 3382319 1425732603                                         
version 2
run General-0-20150306-11:33:46-10714
attr configname General
attr datetime 20150306-11:33:46
attr experiment General
attr inifile BusScenario.ini
attr iterationvars ""
attr iterationvars2 $repetition=0
attr measurement ""
attr network PedestrianScenario
attr processid 10714
attr repetition 0
attr replication #0
attr resultdir results
attr runnumber 0
attr seedset 0
vector 4  PedestrianScenario.node[0].veinsmobility  posx  ETV
4	110632 6803 2 7770 0.5 128 256 36544.336648543 37365.320011307 9450133.7549516 348867149180.67
vector 5  PedestrianScenario.node[0].veinsmobility  posy  ETV
5	117435 6790 2 7770 0.5 128 256 15636.587666078 16360.664618434 4089900.3277721 65359356744.358
vector 11  PedestrianScenario.node[1].veinsmobility  posx  ETV
11	142386 7061 2 7770 0.5 128 256 36987.563218541 37268.608903757 9509009.3625092 353209004347.32
vector 12  PedestrianScenario.node[1].veinsmobility  posy  ETV
12	149447 7062 2 7770 0.5 128 256 11808.875842215 12362.487599615 3103609.4137692 37630523239.661
vector 18  PedestrianScenario.node[2].veinsmobility  posx  ETV
18	177791 7052 2 7770 0.5 128 256 36823.734499264 37412.938552744 9508085.005076 353145205975.08
vector 19  PedestrianScenario.node[2].veinsmobility  posy  ETV
19	184843 7051 2 7770 0.5 128 256 11617.842887813 11982.102110708 3018771.638169 35599845065.623
vector 25  PedestrianScenario.node[3].veinsmobility  posx  ETV
25	212964 7050 2 7770 0.5 128 256 37172.20052732 37520.868546843 9570988.0177958 357829886046.17
vector 26  PedestrianScenario.node[3].veinsmobility  posy  ETV
26	220014 7047 2 7770 0.5 128 256 11389.506177752 12349.707314525 3065843.0942428 36736372377.252
vector 32  PedestrianScenario.node[4].veinsmobility  posx  ETV
32	248234 7053 2 7770 0.5 128 256 33805.661244657 34317.945091328 8707192.5482231 296159498997.23
vector 33  PedestrianScenario.node[4].veinsmobility  posy  ETV
33	255287 7044 2 7770 0.5 128 256 6716.9530104427 7810.6220288889 1833983.4644499 13169593794.255
vector 39  PedestrianScenario.node[5].veinsmobility  posx  ETV
39	283564 7056 2 7770 0.5 128 256 36974.550327178 37539.081060688 9571133.8206136 357843447741.44
vector 40  PedestrianScenario.node[5].veinsmobility  posy  ETV
40	290620 7051 2 7770 0.5 128 256 10017.695249342 11218.733369956 2701643.768967 28551250689.563
vector 46  PedestrianScenario.node[6].veinsmobility  posx  ETV
46	319027 7059 2 7770 0.5 128 256 37570.462760342 39158.572533924 9868360.8373522 380479809251.01
vector 47  PedestrianScenario.node[6].veinsmobility  posy  ETV
47	326086 7054 2 7770 0.5 128 256 12858.032911933 13374.016704288 3363339.4564928 44190596297.716
vector 54  PedestrianScenario.node[7].veinsmobility  posy  ETV
54	25405 2077 2 518 0.5 39.5 79 14239.843758356 14424.796300193 1132141.7987204 16224966875.125
vector 60  PedestrianScenario.node[8].veinsmobility  posx  ETV
60	354263 7053 2 7770 0.5 128 256 37680.955385788 38673.777547195 9764279.2539951 372459597280.16
vector 61  PedestrianScenario.node[8].veinsmobility  posy  ETV
61	361316 7049 2 7770 0.5 128 256 12554.037931281 13114.726310694 3306495.4754489 42713415933.229
vector 67  PedestrianScenario.node[9].veinsmobility  posx  ETV
67	389660 7052 2 7770 0.5 128 256 35241.414164183 35899.473553351 9110023.2477687 324200917992.06
vector 68  PedestrianScenario.node[9].veinsmobility  posy  ETV
68	396712 7047 2 7770 0.5 128 256 13647.390980166 14486.61456688 3602224.1435942 50700989099.243
vector 74  PedestrianScenario.node[10].veinsmobility  posx  ETV
74	424685 7058 2 7770 0.5 128 256 34035.908404493 34124.158939712 8725066.8175118 297370404846.37
vector 75  PedestrianScenario.node[10].veinsmobility  posy  ETV
75	431743 7052 2 7770 0.5 128 256 6578.4491237966 6761.4653505446 1713050.5601414 11464153594.134
vector 6  PedestrianScenario.node[0].veinsmobility  speed  ETV
6	124225 6039 3 7770 1 128 255 0 17.992555406536 2597.4025157683 38056.951173498
vector 13  PedestrianScenario.node[1].veinsmobility  speed  ETV
13	156509 7511 3 7770 1 128 255 2.4755485806745e-13 11.997424354055 1259.3525436164 13527.812065709
vector 20  PedestrianScenario.node[2].veinsmobility  speed  ETV
20	191894 7025 3 7770 1 128 255 1.6413954107584 11.999039205466 2634.2587395412 29105.005665822
vector 27  PedestrianScenario.node[3].veinsmobility  speed  ETV
27	227061 7023 3 7770 1 128 255 1.5308061666171 11.999765496072 2708.8851051359 30450.307912996
vector 34  PedestrianScenario.node[4].veinsmobility  speed  ETV
34	262331 7028 3 7770 1 128 255 1.6177591556644 11.999477489619 2706.3429522218 30446.301274234
vector 41  PedestrianScenario.node[5].veinsmobility  speed  ETV
41	297671 7021 3 7770 1 128 255 2.0456564641884 13.999963194737 3298.2714795976 44446.403407306
vector 48  PedestrianScenario.node[6].veinsmobility  speed  ETV
48	333140 7038 3 7770 1 128 255 2.0812300971506 17.999208911832 3845.2421667323 63451.364134596
vector 55  PedestrianScenario.node[7].veinsmobility  speed  ETV
55	23351 2054 3 518 1 39.5 78 2.0036613884683 13.884419185901 744.04806693299 8345.6111737726
vector 62  PedestrianScenario.node[8].veinsmobility  speed  ETV
62	368365 7031 3 7770 1 128 255 2.1102167612433 13.999414011866 3285.7941872685 43996.353026844
vector 69  PedestrianScenario.node[9].veinsmobility  speed  ETV
69	403759 7031 3 7770 1 128 255 2.0776639016261 11.998169250269 2543.680272383 27491.511088817
vector 76  PedestrianScenario.node[10].veinsmobility  speed  ETV
76	438795 6215 3 7770 1 128 255 0 2.7798883816879 528.06069588528 1433.0381419907
vector 81  PedestrianScenario.node[11].veinsmobility  posx  ETV
81	457909 7003 4 7770 1.5 128 254 34488.052051394 35157.681883376 8857171.4495976 308868465495.4
vector 82  PedestrianScenario.node[11].veinsmobility  posy  ETV
82	464912 7006 4 7770 1.5 128 254 9716.3731223164 10722.066340127 2576365.6881597 26154998867.119
vector 7  PedestrianScenario.node[0].veinsmobility  acceleration  ETV
7	130264 6199 4 7770 1.5 128 254 -4.5 2.6 7.9378912797209 515.42550777228
vector 8  PedestrianScenario.node[0].veinsmobility  co2emission  ETV
8	136463 5923 4 7770 1.5 128 254 0.973 10.736961752518 643.09589304383 2581.7549952627
vector 14  PedestrianScenario.node[1].veinsmobility  acceleration  ETV
14	164020 7758 4 7770 1.5 128 254 -3.2115934411391 1.8579700004029 19.979765838464 137.90517137004
vector 15  PedestrianScenario.node[1].veinsmobility  co2emission  ETV
15	171778 6013 4 7770 1.5 128 254 0.973 6.3264480777078 437.67523666946 1027.5222046208
vector 21  PedestrianScenario.node[2].veinsmobility  acceleration  ETV
21	198919 7322 4 7770 1.5 128 254 -3.286480677169 2 20.576834772289 330.7636204648
vector 22  PedestrianScenario.node[2].veinsmobility  co2emission  ETV
22	206241 6723 4 7770 1.5 128 254 0.973 6.494730018074 591.92677150123 1793.2445423118
vector 28  PedestrianScenario.node[3].veinsmobility  acceleration  ETV
28	234084 7378 4 7770 1.5 128 254 -3.2761648694485 2 20.911239096599 258.01289470977
vector 29  PedestrianScenario.node[3].veinsmobility  co2emission  ETV
29	241462 6772 4 7770 1.5 128 254 0.973 6.9513583315727 571.54075730469 1632.8165814162
vector 35  PedestrianScenario.node[4].veinsmobility  acceleration  ETV
35	269359 7402 4 7770 1.5 128 254 -3.3703298218883 2 20.663477791854 232.05492371554
vector 36  PedestrianScenario.node[4].veinsmobility  co2emission  ETV
36	276761 6803 4 7770 1.5 128 254 0.973 5.7668748750196 558.32147462383 1517.2748388684
vector 42  PedestrianScenario.node[5].veinsmobility  acceleration  ETV
42	304692 7459 4 7770 1.5 128 254 -3.3139716271063 2.6 23.884342114171 178.86354350312
vector 43  PedestrianScenario.node[5].veinsmobility  co2emission  ETV
43	312151 6876 4 7770 1.5 128 254 0.973 8.3734364508904 596.52118220508 1814.4980992917
vector 49  PedestrianScenario.node[6].veinsmobility  acceleration  ETV
49	340178 7367 4 7770 1.5 128 254 -3.6737520084946 2.6 31.663071932852 469.07589052087
vector 50  PedestrianScenario.node[6].veinsmobility  co2emission  ETV
50	347545 6718 4 7770 1.5 128 254 0.973 11.745534369795 827.69164225612 3916.0907221261
vector 56  PedestrianScenario.node[7].veinsmobility  acceleration  ETV
56	21298 2053 4 518 1.5 39.5 77 -4.5 2.6 4.0648584780762 270.04077770846
vector 57  PedestrianScenario.node[7].veinsmobility  co2emission  ETV
57	19481 1817 4 518 1.5 39.5 77 0.973 8.6079327954728 231.69642732351 1042.4442462428
vector 63  PedestrianScenario.node[8].veinsmobility  acceleration  ETV
63	375396 7444 4 7770 1.5 128 254 -3.4386018973346 2.6 16.555606464251 270.9164527147
vector 64  PedestrianScenario.node[8].veinsmobility  co2emission  ETV
64	382840 6820 4 7770 1.5 128 254 0.973 9.2130096416196 624.40858780138 2104.7563886345
vector 70  PedestrianScenario.node[9].veinsmobility  acceleration  ETV
70	410790 7290 4 7770 1.5 128 254 -3.2972147436451 2.6 19.648911951625 526.14856787579
vector 71  PedestrianScenario.node[9].veinsmobility  co2emission  ETV
71	418080 6605 4 7770 1.5 128 254 0.973 8.2009230499217 641.95250871926 2349.0680318428
vector 77  PedestrianScenario.node[10].veinsmobility  acceleration  ETV
77	445010 6643 4 7770 1.5 128 254 -4.5 1.9106099146034 2.4020251783795 35.414914619682
vector 78  PedestrianScenario.node[10].veinsmobility  co2emission  ETV
78	451653 6256 4 7770 1.5 128 254 0.973 2.3076816435785 300.76146624739 364.08805416192
vector 83  PedestrianScenario.node[11].veinsmobility  speed  ETV
83	471918 6978 5 7770 2 128 253 2.079727342963 11.999830406853 2608.3551828924 28750.310307477
vector 88  PedestrianScenario.node[12].veinsmobility  posx  ETV
88	492776 6962 6 7770 2.5 128 252 36042.539556241 36310.938092587 9120720.2058634 330111581282.14
vector 89  PedestrianScenario.node[12].veinsmobility  posy  ETV
89	499738 6952 6 7770 2.5 128 252 9019.9653869321 9791.2677450689 2378853.4720304 22470463289.254
vector 84  PedestrianScenario.node[11].veinsmobility  acceleration  ETV
84	478896 7264 6 7770 2.5 128 252 -3.3983472726982 2.6 19.731086470288 425.65349330141
vector 85  PedestrianScenario.node[11].veinsmobility  co2emission  ETV
85	486160 6616 6 7770 2.5 128 252 0.973 8.0502764865315 603.18649952608 2056.8436426757
vector 90  PedestrianScenario.node[12].veinsmobility  speed  ETV
90	506690 6929 7 7770 3 128 251 2.0834585440038 11.998325392809 2409.1386977684 25222.594793825
vector 95  PedestrianScenario.node[13].veinsmobility  posx  ETV
95	527163 6898 8 7770 3.5 128 250 37924.012489545 39319.339772346 9605248.7649628 369092325875.3
vector 96  PedestrianScenario.node[13].veinsmobility  posy  ETV
96	534061 6903 8 7770 3.5 128 250 15277.768451083 15783.648242466 3887798.5697671 60464554302.002
vector 91  PedestrianScenario.node[12].veinsmobility  acceleration  ETV
91	513619 7151 8 7770 3.5 128 250 -3.3549479154491 2.6 19.668430626197 646.56084916969
vector 92  PedestrianScenario.node[12].veinsmobility  co2emission  ETV
92	520770 6393 8 7770 3.5 128 250 0.973 7.7392865885437 668.9854809872 2639.1520887492
vector 102  PedestrianScenario.node[14].veinsmobility  posx  ETV
102	561831 7145 9 7770 4 128 249 36987.563664427 37180.272688979 9245333.7190784 343278558034.78
vector 103  PedestrianScenario.node[14].veinsmobility  posy  ETV
103	568976 7134 9 7770 4 128 249 11808.876681914 12194.856862986 3010803.72483 36408099417.242
vector 109  PedestrianScenario.node[15].veinsmobility  posx  ETV
109	597719 7133 9 7770 4 128 249 37026.126077305 37389.317402965 9274424.4419586 345443529350.75
vector 110  PedestrianScenario.node[15].veinsmobility  posy  ETV
110	604852 7134 9 7770 4 128 249 12186.596131666 12592.115432664 3094907.5266994 38470492056.732
vector 97  PedestrianScenario.node[13].veinsmobility  speed  ETV
97	540964 6888 9 7770 4 128 249 2.0680808753437 17.999394380385 3787.2691962342 61466.319822049
vector 116  PedestrianScenario.node[16].veinsmobility  posx  ETV
116	632918 7114 10 7770 4.5 128 248 39803.67176166 41042.371566834 10063035.219974 408365536758.1
vector 117  PedestrianScenario.node[16].veinsmobility  posy  ETV
117	640032 7102 10 7770 4.5 128 248 15080.298837284 15366.649077474 3770151.01405 57316135586.384
vector 98  PedestrianScenario.node[13].veinsmobility  acceleration  ETV
98	547852 7265 10 7770 4.5 128 248 -3.429775689057 2.6 31.776646768458 262.3983246373
vector 99  PedestrianScenario.node[13].veinsmobility  co2emission  ETV
99	555117 6714 10 7770 4.5 128 248 0.973 12.235481915092 714.87989434385 2807.2845686226
vector 104  PedestrianScenario.node[14].veinsmobility  speed  ETV
104	576110 7564 10 7770 4.5 128 248 2.477187749686e-13 11.997367867036 1278.5019107535 14217.094156185
vector 111  PedestrianScenario.node[15].veinsmobility  speed  ETV
111	611986 7111 10 7770 4.5 128 248 1.5431881988032 11.999369024462 2326.987147639 23947.046170141
vector 105  PedestrianScenario.node[14].veinsmobility  acceleration  ETV
105	583674 7817 11 7770 5 128 247 -2.6693597568544 2 20.870289627286 114.50471587138
vector 106  PedestrianScenario.node[14].veinsmobility  co2emission  ETV
106	591491 6228 11 7770 5 128 247 0.973 6.3423032753912 417.79515821533 965.75422363261
vector 112  PedestrianScenario.node[15].veinsmobility  acceleration  ETV
112	619097 7294 11 7770 5 128 247 -3.2992639771253 2 4.6400011409224 528.43544651018
vector 113  PedestrianScenario.node[15].veinsmobility  co2emission  ETV
113	626391 6527 11 7770 5 128 247 0.973 6.5013320742443 631.30215956914 2201.5284383605
vector 118  PedestrianScenario.node[16].veinsmobility  speed  ETV
118	647134 7087 11 7770 5 128 247 1.9968809391841 13.889910098459 3182.9713844669 42592.487605053
vector 123  PedestrianScenario.node[17].veinsmobility  posx  ETV
123	668650 7057 12 7770 5.5 128 246 38327.356275026 39087.885438784 9535656.6085832 369638641354.14
vector 124  PedestrianScenario.node[17].veinsmobility  posy  ETV
124	675707 7060 12 7770 5.5 128 246 10274.413484485 11086.490249508 2626649.8415274 28062444248.877
vector 119  PedestrianScenario.node[16].veinsmobility  acceleration  ETV
119	654221 7485 12 7770 5.5 128 246 -3.5383769249114 2.6 23.774783298675 186.45863325875
vector 120  PedestrianScenario.node[16].veinsmobility  co2emission  ETV
120	661706 6944 12 7770 5.5 128 246 0.973 8.5744168709233 580.51299156494 1776.7778232261
vector 125  PedestrianScenario.node[17].veinsmobility  speed  ETV
125	682767 7028 13 7770 6 128 245 2.1417071520515 11.998797201815 2563.1668785069 28391.587959139
vector 130  PedestrianScenario.node[18].veinsmobility  posx  ETV
130	703808 7015 14 7770 6.5 128 244 39471.265197918 39932.749471518 9695789.5237172 385286041658.16
vector 131  PedestrianScenario.node[18].veinsmobility  posy  ETV
131	710823 7000 14 7770 6.5 128 244 15692.029783092 16116.195654291 3900562.0009295 62357294674.155
vector 126  PedestrianScenario.node[17].veinsmobility  acceleration  ETV
126	689795 7324 14 7770 6.5 128 244 -3.323747443045 2.6 19.549514614166 430.76612613209
vector 127  PedestrianScenario.node[17].veinsmobility  co2emission  ETV
127	697119 6689 14 7770 6.5 128 244 0.973 7.8234800508458 608.68190274744 2185.0063503948
vector 132  PedestrianScenario.node[18].veinsmobility  speed  ETV
132	717823 6972 15 7770 7 128 243 1.9238973723226 11.998157815388 2370.0573425244 25111.367923437
vector 137  PedestrianScenario.node[19].veinsmobility  posx  ETV
137	738423 6956 16 7770 7.5 128 242 36904.02741308 38015.478569132 9068306.2751475 339840839455.79
vector 138  PedestrianScenario.node[19].veinsmobility  posy  ETV
138	745379 6957 16 7770 7.5 128 242 13643.464800909 14732.520161906 3399523.2316589 47788209118.349
vector 144  PedestrianScenario.node[20].veinsmobility  posx  ETV
144	773160 6962 16 7770 7.5 128 242 36987.566644557 37155.182673463 8985070.29052 333601801242.82
vector 145  PedestrianScenario.node[20].veinsmobility  posy  ETV
145	780122 6968 16 7770 7.5 128 242 11808.882294128 12143.917849566 2925656.693865 35372194448.994
vector 133  PedestrianScenario.node[18].veinsmobility  acceleration  ETV
133	724795 7153 16 7770 7.5 128 242 -3.3993439620291 2.6 14.747032159953 623.34490407365
vector 134  PedestrianScenario.node[18].veinsmobility  co2emission  ETV
134	731948 6475 16 7770 7.5 128 242 0.973 8.1479663919303 650.62272240019 2578.0867932836
vector 139  PedestrianScenario.node[19].veinsmobility  speed  ETV
139	752336 6924 17 7770 8 128 241 2.0736240670621 17.998611530799 3462.680096418 54426.559522302
vector 146  PedestrianScenario.node[20].veinsmobility  speed  ETV
146	787090 6641 17 7770 8 128 241 0 11.995865362626 748.95814828209 8290.7115229669
vector 151  PedestrianScenario.node[21].veinsmobility  posx  ETV
151	806165 6900 18 7770 8.5 128 240 37505.356617534 38754.350112119 9168418.7761374 350287358896.58
vector 152  PedestrianScenario.node[21].veinsmobility  posy  ETV
152	813065 6907 18 7770 8.5 128 240 12988.156383698 13604.385237019 3164612.4420328 41734326694.978
vector 140  PedestrianScenario.node[19].veinsmobility  acceleration  ETV
140	759260 7269 18 7770 8.5 128 240 -4.2807039502983 2.6 14.281420030707 347.66197020273
vector 141  PedestrianScenario.node[19].veinsmobility  co2emission  ETV
141	766529 6631 18 7770 8.5 128 240 0.973 10.927464301968 672.86985576893 2639.8218190875
vector 147  PedestrianScenario.node[20].veinsmobility  acceleration  ETV
147	793731 6843 18 7770 8.5 128 240 -2.5183277573006 1.7700392784551 -3.3460160426061 77.343575311365
vector 148  PedestrianScenario.node[20].veinsmobility  co2emission  ETV
148	800574 5591 18 7770 8.5 128 240 0.973 6.2815104567557 334.08753862551 628.32294849592
vector 153  PedestrianScenario.node[21].veinsmobility  speed  ETV
153	819972 6875 19 7770 9 128 239 2.1251801180088 17.998631774541 3415.8528536397 54518.827908288
vector 158  PedestrianScenario.node[22].veinsmobility  posx  ETV
158	840457 6844 20 7770 9.5 128 238 38108.650117033 38549.541550467 9088635.3193179 347076120025.79
vector 159  PedestrianScenario.node[22].veinsmobility  posy  ETV
159	847301 6852 20 7770 9.5 128 238 12226.963797946 13141.92509948 3047239.1014708 39038436367.251
vector 154  PedestrianScenario.node[21].veinsmobility  acceleration  ETV
154	826847 7143 20 7770 9.5 128 238 -3.5574999593082 2.6 31.657946825932 467.35951702781
vector 155  PedestrianScenario.node[21].veinsmobility  co2emission  ETV
155	833990 6467 20 7770 9.5 128 238 0.973 11.21955490092 759.58792594369 3586.9762383896
vector 160  PedestrianScenario.node[22].veinsmobility  speed  ETV
160	854153 6814 21 7770 10 128 237 1.1239127055452 11.999955688247 2598.3286670012 29867.738360564
vector 165  PedestrianScenario.node[23].veinsmobility  posx  ETV
165	874840 6780 25 7770 10.5 128 236 36200.65 36962.529012723 8604712.9229162 313748122143.65
vector 166  PedestrianScenario.node[23].veinsmobility  posy  ETV
166	881620 6775 25 7770 10.5 128 236 12012.028977776 12373.011582733 2869520.7145912 34892979583.984
vector 172  PedestrianScenario.node[24].veinsmobility  posx  ETV
172	908396 6809 25 7770 10.5 128 236 36987.475963464 37150.812705235 8761204.6008831 325249344414.34
vector 173  PedestrianScenario.node[24].veinsmobility  posy  ETV
173	915205 6810 25 7770 10.5 128 236 11808.711522437 12134.921972953 2850881.6922128 34441075835.811
vector 161  PedestrianScenario.node[22].veinsmobility  acceleration  ETV
161	860967 7230 25 7770 10.5 128 236 -3.3805081099658 2.6 19.939055836671 223.32063803601
vector 162  PedestrianScenario.node[22].veinsmobility  co2emission  ETV
162	868197 6643 25 7770 10.5 128 236 0.973 8.2781466131546 518.33636174941 1533.4660872321
vector 167  PedestrianScenario.node[23].veinsmobility  speed  ETV
167	888395 6771 116 7770 11 128 235 2.0595584608985 13.99969921618 2624.9604269912 32340.864875192
vector 174  PedestrianScenario.node[24].veinsmobility  speed  ETV
174	922015 7382 116 7770 11 128 235 2.4772395192537e-13 11.996565750311 729.59186281721 8032.1727639088
vector 179  PedestrianScenario.node[25].veinsmobility  posx  ETV
179	942429 6744 117 7770 11.5 128 234 35076.194192906 35517.271856645 8260941.9133523 291642693937.84
vector 180  PedestrianScenario.node[25].veinsmobility  posy  ETV
180	949173 6751 117 7770 11.5 128 234 14706.368173027 15732.79204032 3565085.2867788 54334474892.22
vector 168  PedestrianScenario.node[23].veinsmobility  acceleration  ETV
168	895166 6951 117 7770 11.5 128 234 -3.4948740929075 2.6 23.833672796126 611.86980626316
vector 169  PedestrianScenario.node[23].veinsmobility  co2emission  ETV
169	902117 6279 117 7770 11.5 128 234 0.973 9.5181976656558 697.97580498668 3144.3523842882
vector 175  PedestrianScenario.node[24].veinsmobility  acceleration  ETV
175	929397 7593 117 7770 11.5 128 234 -2.4589340114561 1.8431558638345 -1.812877247414 79.291625695662
vector 176  PedestrianScenario.node[24].veinsmobility  co2emission  ETV
176	936990 5439 117 7770 11.5 128 234 0.973 6.9632816810704 334.18834690954 629.8484656824
vector 181  PedestrianScenario.node[25].veinsmobility  speed  ETV
181	955924 6707 118 7770 12 128 233 1.0774482839125 13.88922175708 2504.3866575695 30205.314214395
vector 186  PedestrianScenario.node[26].veinsmobility  posx  ETV
186	975719 6690 119 7770 12.5 128 232 37765.203390489 38532.199352912 8868888.8612894 339052825616.03
vector 187  PedestrianScenario.node[26].veinsmobility  posy  ETV
187	982409 6691 119 7770 12.5 128 232 14305.844299666 14843.949601538 3382007.9868587 49307583388.539
vector 182  PedestrianScenario.node[25].veinsmobility  acceleration  ETV
182	962631 6904 119 7770 12.5 128 232 -4.5 2.6 18.886191625158 663.07149877793
vector 183  PedestrianScenario.node[25].veinsmobility  co2emission  ETV
183	969535 6184 119 7770 12.5 128 232 0.973 8.6682499119559 697.09542721153 3150.3087236151
vector 188  PedestrianScenario.node[26].veinsmobility  speed  ETV
188	989100 6652 120 7770 13 128 231 1.9707091272777 13.995287298127 2767.2067668025 35490.880384973
vector 194  PedestrianScenario.node[27].veinsmobility  posy  ETV
194	61868 3770 121 2475 13.5 79.5 133 12280.318564682 12592.52870671 1655735.3366668 20613919837.805
vector 189  PedestrianScenario.node[26].veinsmobility  acceleration  ETV
189	995752 6962 121 7770 13.5 128 230 -3.4862063020398 2.6 23.942231002242 449.4311885346
vector 190  PedestrianScenario.node[26].veinsmobility  co2emission  ETV
190	1002714 6322 121 7770 13.5 128 230 0.973 8.9374994333489 641.81623414458 2643.8971232259
vector 200  PedestrianScenario.node[28].veinsmobility  posx  ETV
200	1009036 6614 123 7770 14 128 229 36987.475963464 37146.442737006 8500455.0864445 315536514238.53
vector 201  PedestrianScenario.node[28].veinsmobility  posy  ETV
201	1015650 6614 123 7770 14 128 229 11808.711522437 12125.926096341 2764508.5823361 33375618602.456
vector 195  PedestrianScenario.node[27].veinsmobility  speed  ETV
195	58127 3741 123 2475 14 79.5 132 1.9752174626877 13.887721519656 1305.7115431729 14589.048971001
vector 207  PedestrianScenario.node[29].veinsmobility  posx  ETV
207	1042105 6573 168 7770 14.5 128 228 36704.587695714 37233.604150887 8437947.2719333 312283314940.62
vector 208  PedestrianScenario.node[29].veinsmobility  posy  ETV
208	1048678 6566 168 7770 14.5 128 228 13798.018541882 14539.812030008 3243486.7313496 46152873231.885
vector 196  PedestrianScenario.node[27].veinsmobility  acceleration  ETV
196	54349 3778 168 2475 14.5 79.5 131 -3.3744770786051 2.6 23.809558898363 505.38426227383
vector 197  PedestrianScenario.node[27].veinsmobility  co2emission  ETV
197	50977 3372 168 2475 14.5 79.5 131 0.973 8.969123027652 455.37809701111 2368.7691569762
vector 202  PedestrianScenario.node[28].veinsmobility  speed  ETV
202	1022264 7169 168 7770 14.5 128 228 2.4757054160151e-13 11.999290757254 709.68935605549 7787.8024843823
vector 203  PedestrianScenario.node[28].veinsmobility  acceleration  ETV
203	1029433 7362 169 7770 15 128 227 -2.4744326502201 1.6754173401334 -1.908526885152 76.767029370091
vector 204  PedestrianScenario.node[28].veinsmobility  co2emission  ETV
204	1036795 5310 169 7770 15 128 227 0.973 6.0514021458089 324.6618928236 608.05869660324
vector 209  PedestrianScenario.node[29].veinsmobility  speed  ETV
209	1055244 6547 169 7770 15 128 227 2.130062552539 13.889052663688 2211.7750743614 24587.123554999
vector 216  PedestrianScenario.node[30].veinsmobility  posx  ETV
216	1074213 6522 170 7770 15.5 128 226 36299.123958556 36690.504299259 8268022.9734293 302481332348.91
vector 217  PedestrianScenario.node[30].veinsmobility  posy  ETV
217	1080735 6530 170 7770 15.5 128 226 13544.301394576 14518.610899018 3173236.422646 44583777396.737
vector 210  PedestrianScenario.node[29].veinsmobility  acceleration  ETV
210	1061791 6596 170 7770 15.5 128 226 -3.4370733805648 2.6 8.027693586614 884.61456649282
vector 211  PedestrianScenario.node[29].veinsmobility  co2emission  ETV
211	1068387 5826 170 7770 15.5 128 226 0.973 8.8898490193511 735.01752048002 3683.4985890218
vector 218  PedestrianScenario.node[30].veinsmobility  speed  ETV
218	1087265 6055 171 7770 16 128 225 0 13.889280866729 2352.7837314643 30494.382447858
vector 223  PedestrianScenario.node[31].veinsmobility  posx  ETV
223	1105536 6470 172 7770 16.5 128 224 37697.019311891 38622.954415701 8558330.5912157 327013314661.14
vector 224  PedestrianScenario.node[31].veinsmobility  posy  ETV
224	1112006 6458 172 7770 16.5 128 224 12754.901101367 13439.086068697 2937032.8747186 38514594986.597
vector 219  PedestrianScenario.node[30].veinsmobility  acceleration  ETV
219	1093320 6281 172 7770 16.5 128 224 -4.5 2.6 -4.0563421702662 361.63227797968
vector 220  PedestrianScenario.node[30].veinsmobility  co2emission  ETV
220	1099601 5935 172 7770 16.5 128 224 0.973 9.0382295722043 522.50805160013 1817.1278474357
vector 225  PedestrianScenario.node[31].veinsmobility  speed  ETV
225	1118464 6429 173 7770 17 128 223 0.82092474437355 13.997199577608 2841.5579755961 38266.242572144
vector 226  PedestrianScenario.node[31].veinsmobility  acceleration  ETV
226	1124893 6847 174 7770 17.5 128 222 -3.5467379631479 2.3182750383548 23.920877086777 165.56610426956
vector 227  PedestrianScenario.node[31].veinsmobility  co2emission  ETV
227	1131740 6305 174 7770 17.5 128 222 0.973 8.0573011264268 524.00872510195 1612.9859802123
vector 230  PedestrianScenario.node[32].veinsmobility  posx  ETV
230	1138045 6355 176 7770 18.5 128 220 34780.147574036 35162.523461209 7682748.4144722 268296841152.2
vector 231  PedestrianScenario.node[32].veinsmobility  posy  ETV
231	1144400 6357 176 7770 18.5 128 220 14669.837137201 15768.311698163 3371816.881798 51706021749.572
vector 232  PedestrianScenario.node[32].veinsmobility  speed  ETV
232	1150757 6314 177 7770 19 128 219 2.0367072899562 13.888135662614 2642.0493081875 34072.863632559
vector 237  PedestrianScenario.node[33].veinsmobility  posx  ETV
237	1169733 6294 178 7770 19.5 128 218 38655.824930287 39156.37512957 8481295.2292292 329969569445.07
vector 238  PedestrianScenario.node[33].veinsmobility  posy  ETV
238	1176027 6297 178 7770 19.5 128 218 10383.550478936 11288.455194547 2358405.7927241 25529214030.724
vector 233  PedestrianScenario.node[32].veinsmobility  acceleration  ETV
233	1157071 6621 178 7770 19.5 128 218 -3.5810393588216 2.6 7.5820052472853 335.10661752774
vector 234  PedestrianScenario.node[32].veinsmobility  co2emission  ETV
234	1163692 6041 178 7770 19.5 128 218 0.973 8.4289282879315 542.96280736488 1887.3490543591
vector 239  PedestrianScenario.node[33].veinsmobility  speed  ETV
239	1182324 6276 179 7770 20 128 217 1.9560000657314 13.998710485222 2678.7158732281 35102.109598209
vector 244  PedestrianScenario.node[34].veinsmobility  posx  ETV
244	1201219 6239 183 7770 20.5 128 216 35410.674308183 36184.195565481 7737399.5093994 277177188657.83
vector 245  PedestrianScenario.node[34].veinsmobility  posy  ETV
245	1207458 6236 183 7770 20.5 128 216 10309.094565699 10798.325278536 2253682.4467874 23516914577.539
vector 251  PedestrianScenario.node[35].veinsmobility  posx  ETV
251	1232133 6253 183 7770 20.5 128 216 36987.566200667 37142.072768778 8017027.0511498 297559390821.56
vector 252  PedestrianScenario.node[35].veinsmobility  posy  ETV
252	1238386 6241 183 7770 20.5 128 216 11808.88145819 12116.930219728 2605784.621066 31437698835.594
vector 240  PedestrianScenario.node[33].veinsmobility  acceleration  ETV
240	1188600 6578 183 7770 20.5 128 216 -3.4640714292562 2.6 23.907838136181 302.2024312717
vector 241  PedestrianScenario.node[33].veinsmobility  co2emission  ETV
241	1195178 6041 183 7770 20.5 128 216 0.973 8.5388341936977 562.29014551554 2075.451885202
vector 246  PedestrianScenario.node[34].veinsmobility  speed  ETV
246	1213694 6212 274 7770 21 128 215 0.96978997388909 17.999868694248 2579.8519168866 35733.335565858
vector 253  PedestrianScenario.node[35].veinsmobility  speed  ETV
253	1244627 6759 274 7770 21 128 215 2.4755097084901e-13 11.998477113782 689.01690301819 7594.5952618065
vector 258  PedestrianScenario.node[36].veinsmobility  posx  ETV
258	1263381 6186 275 7770 21.5 128 214 35687.307959391 36679.233250467 7725194.8231739 278892716641.8
vector 259  PedestrianScenario.node[36].veinsmobility  posy  ETV
259	1269567 6185 275 7770 21.5 128 214 12566.672119214 13440.781764249 2793544.3942026 36480316539.469
vector 247  PedestrianScenario.node[34].veinsmobility  acceleration  ETV
247	1219906 6413 275 7770 21.5 128 214 -3.3484608332081 2.6 31.744853834102 527.08343516695
vector 248  PedestrianScenario.node[34].veinsmobility  co2emission  ETV
248	1226319 5814 275 7770 21.5 128 214 0.973 10.913422396224 673.69935305586 3126.9789849618
vector 254  PedestrianScenario.node[35].veinsmobility  acceleration  ETV
254	1251386 6956 275 7770 21.5 128 214 -3.1682461323023 1.6917465306353 -3.1152706143814 85.941121224819
vector 255  PedestrianScenario.node[35].veinsmobility  co2emission  ETV
255	1258342 5039 275 7770 21.5 128 214 0.973 6.0934734598569 309.6316717507 591.23559084302
vector 260  PedestrianScenario.node[36].veinsmobility  speed  ETV
260	1275752 6164 276 7770 22 128 213 2.1048267881556 17.998024369387 2910.009268289 44655.65266036
vector 265  PedestrianScenario.node[37].veinsmobility  posx  ETV