file 1617899 1425382354                                         
version 2
run General-0-20150303-08:30:37-6463
attr configname General
attr datetime 20150303-08:30:37
attr experiment General
attr inifile BusScenario.ini
attr iterationvars ""
attr iterationvars2 $repetition=0
attr measurement ""
attr network PedestrianScenario
attr processid 6463
attr repetition 0
attr replication #0
attr resultdir results
attr runnumber 0
attr seedset 0

vector 2  PedestrianScenario.node[0].veinsmobility  posx  ETV
vector 3  PedestrianScenario.node[0].veinsmobility  posy  ETV
vector 9  PedestrianScenario.node[1].veinsmobility  posx  ETV
vector 10  PedestrianScenario.node[1].veinsmobility  posy  ETV
vector 16  PedestrianScenario.node[2].veinsmobility  posx  ETV
vector 17  PedestrianScenario.node[2].veinsmobility  posy  ETV
vector 23  PedestrianScenario.node[3].veinsmobility  posx  ETV
vector 24  PedestrianScenario.node[3].veinsmobility  posy  ETV
vector 30  PedestrianScenario.node[4].veinsmobility  posx  ETV
vector 31  PedestrianScenario.node[4].veinsmobility  posy  ETV
vector 37  PedestrianScenario.node[5].veinsmobility  posx  ETV
vector 38  PedestrianScenario.node[5].veinsmobility  posy  ETV
vector 44  PedestrianScenario.node[6].veinsmobility  posx  ETV
vector 45  PedestrianScenario.node[6].veinsmobility  posy  ETV
vector 51  PedestrianScenario.node[7].veinsmobility  posx  ETV
vector 52  PedestrianScenario.node[7].veinsmobility  posy  ETV
vector 58  PedestrianScenario.node[8].veinsmobility  posx  ETV
vector 59  PedestrianScenario.node[8].veinsmobility  posy  ETV
vector 65  PedestrianScenario.node[9].veinsmobility  posx  ETV
vector 66  PedestrianScenario.node[9].veinsmobility  posy  ETV
vector 72  PedestrianScenario.node[10].veinsmobility  posx  ETV
vector 73  PedestrianScenario.node[10].veinsmobility  posy  ETV
vector 4  PedestrianScenario.node[0].veinsmobility  speed  ETV
vector 11  PedestrianScenario.node[1].veinsmobility  speed  ETV
vector 18  PedestrianScenario.node[2].veinsmobility  speed  ETV
vector 25  PedestrianScenario.node[3].veinsmobility  speed  ETV
vector 32  PedestrianScenario.node[4].veinsmobility  speed  ETV
vector 39  PedestrianScenario.node[5].veinsmobility  speed  ETV
vector 46  PedestrianScenario.node[6].veinsmobility  speed  ETV
vector 53  PedestrianScenario.node[7].veinsmobility  speed  ETV
vector 60  PedestrianScenario.node[8].veinsmobility  speed  ETV
vector 67  PedestrianScenario.node[9].veinsmobility  speed  ETV
vector 74  PedestrianScenario.node[10].veinsmobility  speed  ETV
vector 79  PedestrianScenario.node[11].veinsmobility  posx  ETV
vector 80  PedestrianScenario.node[11].veinsmobility  posy  ETV
vector 5  PedestrianScenario.node[0].veinsmobility  acceleration  ETV
vector 6  PedestrianScenario.node[0].veinsmobility  co2emission  ETV
vector 12  PedestrianScenario.node[1].veinsmobility  acceleration  ETV
vector 13  PedestrianScenario.node[1].veinsmobility  co2emission  ETV
vector 19  PedestrianScenario.node[2].veinsmobility  acceleration  ETV
vector 20  PedestrianScenario.node[2].veinsmobility  co2emission  ETV
vector 26  PedestrianScenario.node[3].veinsmobility  acceleration  ETV
vector 27  PedestrianScenario.node[3].veinsmobility  co2emission  ETV
vector 33  PedestrianScenario.node[4].veinsmobility  acceleration  ETV
vector 34  PedestrianScenario.node[4].veinsmobility  co2emission  ETV
vector 40  PedestrianScenario.node[5].veinsmobility  acceleration  ETV
vector 41  PedestrianScenario.node[5].veinsmobility  co2emission  ETV
vector 47  PedestrianScenario.node[6].veinsmobility  acceleration  ETV
vector 48  PedestrianScenario.node[6].veinsmobility  co2emission  ETV
vector 54  PedestrianScenario.node[7].veinsmobility  acceleration  ETV
vector 55  PedestrianScenario.node[7].veinsmobility  co2emission  ETV
vector 61  PedestrianScenario.node[8].veinsmobility  acceleration  ETV
vector 62  PedestrianScenario.node[8].veinsmobility  co2emission  ETV
vector 68  PedestrianScenario.node[9].veinsmobility  acceleration  ETV
vector 69  PedestrianScenario.node[9].veinsmobility  co2emission  ETV
vector 75  PedestrianScenario.node[10].veinsmobility  acceleration  ETV
vector 76  PedestrianScenario.node[10].veinsmobility  co2emission  ETV
vector 81  PedestrianScenario.node[11].veinsmobility  speed  ETV
vector 86  PedestrianScenario.node[12].veinsmobility  posx  ETV
vector 87  PedestrianScenario.node[12].veinsmobility  posy  ETV
vector 82  PedestrianScenario.node[11].veinsmobility  acceleration  ETV
vector 83  PedestrianScenario.node[11].veinsmobility  co2emission  ETV
vector 88  PedestrianScenario.node[12].veinsmobility  speed  ETV
vector 93  PedestrianScenario.node[13].veinsmobility  posx  ETV
vector 94  PedestrianScenario.node[13].veinsmobility  posy  ETV
vector 89  PedestrianScenario.node[12].veinsmobility  acceleration  ETV
vector 90  PedestrianScenario.node[12].veinsmobility  co2emission  ETV
vector 100  PedestrianScenario.node[14].veinsmobility  posx  ETV
vector 101  PedestrianScenario.node[14].veinsmobility  posy  ETV
vector 107  PedestrianScenario.node[15].veinsmobility  posx  ETV
vector 108  PedestrianScenario.node[15].veinsmobility  posy  ETV
vector 95  PedestrianScenario.node[13].veinsmobility  speed  ETV
vector 114  PedestrianScenario.node[16].veinsmobility  posx  ETV
vector 115  PedestrianScenario.node[16].veinsmobility  posy  ETV
vector 96  PedestrianScenario.node[13].veinsmobility  acceleration  ETV
vector 97  PedestrianScenario.node[13].veinsmobility  co2emission  ETV
vector 102  PedestrianScenario.node[14].veinsmobility  speed  ETV
vector 109  PedestrianScenario.node[15].veinsmobility  speed  ETV
vector 103  PedestrianScenario.node[14].veinsmobility  acceleration  ETV
vector 104  PedestrianScenario.node[14].veinsmobility  co2emission  ETV
vector 110  PedestrianScenario.node[15].veinsmobility  acceleration  ETV
vector 111  PedestrianScenario.node[15].veinsmobility  co2emission  ETV
vector 116  PedestrianScenario.node[16].veinsmobility  speed  ETV
vector 121  PedestrianScenario.node[17].veinsmobility  posx  ETV
vector 122  PedestrianScenario.node[17].veinsmobility  posy  ETV
vector 117  PedestrianScenario.node[16].veinsmobility  acceleration  ETV
vector 118  PedestrianScenario.node[16].veinsmobility  co2emission  ETV
vector 123  PedestrianScenario.node[17].veinsmobility  speed  ETV
vector 128  PedestrianScenario.node[18].veinsmobility  posx  ETV
vector 129  PedestrianScenario.node[18].veinsmobility  posy  ETV
vector 124  PedestrianScenario.node[17].veinsmobility  acceleration  ETV
vector 125  PedestrianScenario.node[17].veinsmobility  co2emission  ETV
vector 130  PedestrianScenario.node[18].veinsmobility  speed  ETV
vector 135  PedestrianScenario.node[19].veinsmobility  posx  ETV
vector 136  PedestrianScenario.node[19].veinsmobility  posy  ETV
vector 142  PedestrianScenario.node[20].veinsmobility  posx  ETV
vector 143  PedestrianScenario.node[20].veinsmobility  posy  ETV
vector 131  PedestrianScenario.node[18].veinsmobility  acceleration  ETV
vector 132  PedestrianScenario.node[18].veinsmobility  co2emission  ETV
vector 137  PedestrianScenario.node[19].veinsmobility  speed  ETV
vector 144  PedestrianScenario.node[20].veinsmobility  speed  ETV
vector 149  PedestrianScenario.node[21].veinsmobility  posx  ETV
vector 150  PedestrianScenario.node[21].veinsmobility  posy  ETV
vector 138  PedestrianScenario.node[19].veinsmobility  acceleration  ETV
vector 139  PedestrianScenario.node[19].veinsmobility  co2emission  ETV
vector 145  PedestrianScenario.node[20].veinsmobility  acceleration  ETV
vector 146  PedestrianScenario.node[20].veinsmobility  co2emission  ETV
vector 151  PedestrianScenario.node[21].veinsmobility  speed  ETV
vector 156  PedestrianScenario.node[22].veinsmobility  posx  ETV
vector 157  PedestrianScenario.node[22].veinsmobility  posy  ETV
vector 152  PedestrianScenario.node[21].veinsmobility  acceleration  ETV
vector 153  PedestrianScenario.node[21].veinsmobility  co2emission  ETV
vector 158  PedestrianScenario.node[22].veinsmobility  speed  ETV
vector 163  PedestrianScenario.node[23].veinsmobility  posx  ETV
vector 164  PedestrianScenario.node[23].veinsmobility  posy  ETV
vector 170  PedestrianScenario.node[24].veinsmobility  posx  ETV
vector 171  PedestrianScenario.node[24].veinsmobility  posy  ETV
vector 159  PedestrianScenario.node[22].veinsmobility  acceleration  ETV
vector 160  PedestrianScenario.node[22].veinsmobility  co2emission  ETV
vector 165  PedestrianScenario.node[23].veinsmobility  speed  ETV
vector 172  PedestrianScenario.node[24].veinsmobility  speed  ETV
vector 177  PedestrianScenario.node[25].veinsmobility  posx  ETV
vector 178  PedestrianScenario.node[25].veinsmobility  posy  ETV
vector 166  PedestrianScenario.node[23].veinsmobility  acceleration  ETV
vector 167  PedestrianScenario.node[23].veinsmobility  co2emission  ETV
vector 173  PedestrianScenario.node[24].veinsmobility  acceleration  ETV
vector 174  PedestrianScenario.node[24].veinsmobility  co2emission  ETV
vector 179  PedestrianScenario.node[25].veinsmobility  speed  ETV
vector 184  PedestrianScenario.node[26].veinsmobility  posx  ETV
vector 185  PedestrianScenario.node[26].veinsmobility  posy  ETV
vector 180  PedestrianScenario.node[25].veinsmobility  acceleration  ETV
vector 181  PedestrianScenario.node[25].veinsmobility  co2emission  ETV
vector 186  PedestrianScenario.node[26].veinsmobility  speed  ETV
vector 191  PedestrianScenario.node[27].veinsmobility  posx  ETV
vector 192  PedestrianScenario.node[27].veinsmobility  posy  ETV
vector 187  PedestrianScenario.node[26].veinsmobility  acceleration  ETV
vector 188  PedestrianScenario.node[26].veinsmobility  co2emission  ETV
vector 198  PedestrianScenario.node[28].veinsmobility  posx  ETV
vector 199  PedestrianScenario.node[28].veinsmobility  posy  ETV
vector 193  PedestrianScenario.node[27].veinsmobility  speed  ETV
vector 205  PedestrianScenario.node[29].veinsmobility  posx  ETV
vector 206  PedestrianScenario.node[29].veinsmobility  posy  ETV
vector 194  PedestrianScenario.node[27].veinsmobility  acceleration  ETV
vector 195  PedestrianScenario.node[27].veinsmobility  co2emission  ETV
vector 200  PedestrianScenario.node[28].veinsmobility  speed  ETV
vector 201  PedestrianScenario.node[28].veinsmobility  acceleration  ETV
vector 202  PedestrianScenario.node[28].veinsmobility  co2emission  ETV
vector 207  PedestrianScenario.node[29].veinsmobility  speed  ETV
vector 212  PedestrianScenario.node[30].veinsmobility  posx  ETV
vector 213  PedestrianScenario.node[30].veinsmobility  posy  ETV
vector 208  PedestrianScenario.node[29].veinsmobility  acceleration  ETV
vector 209  PedestrianScenario.node[29].veinsmobility  co2emission  ETV
vector 214  PedestrianScenario.node[30].veinsmobility  speed  ETV
vector 219  PedestrianScenario.node[31].veinsmobility  posx  ETV
vector 220  PedestrianScenario.node[31].veinsmobility  posy  ETV
vector 215  PedestrianScenario.node[30].veinsmobility  acceleration  ETV
vector 216  PedestrianScenario.node[30].veinsmobility  co2emission  ETV
vector 221  PedestrianScenario.node[31].veinsmobility  speed  ETV
vector 222  PedestrianScenario.node[31].veinsmobility  acceleration  ETV
vector 223  PedestrianScenario.node[31].veinsmobility  co2emission  ETV
vector 226  PedestrianScenario.node[32].veinsmobility  posx  ETV
vector 227  PedestrianScenario.node[32].veinsmobility  posy  ETV
vector 228  PedestrianScenario.node[32].veinsmobility  speed  ETV
vector 233  PedestrianScenario.node[33].veinsmobility  posx  ETV
vector 234  PedestrianScenario.node[33].veinsmobility  posy  ETV
vector 229  PedestrianScenario.node[32].veinsmobility  acceleration  ETV
vector 230  PedestrianScenario.node[32].veinsmobility  co2emission  ETV
vector 235  PedestrianScenario.node[33].veinsmobility  speed  ETV
vector 240  PedestrianScenario.node[34].veinsmobility  posx  ETV
vector 241  PedestrianScenario.node[34].veinsmobility  posy  ETV
vector 247  PedestrianScenario.node[35].veinsmobility  posx  ETV
vector 248  PedestrianScenario.node[35].veinsmobility  posy  ETV
vector 236  PedestrianScenario.node[33].veinsmobility  acceleration  ETV
vector 237  PedestrianScenario.node[33].veinsmobility  co2emission  ETV
vector 242  PedestrianScenario.node[34].veinsmobility  speed  ETV
vector 249  PedestrianScenario.node[35].veinsmobility  speed  ETV
vector 254  PedestrianScenario.node[36].veinsmobility  posx  ETV
vector 255  PedestrianScenario.node[36].veinsmobility  posy  ETV
vector 243  PedestrianScenario.node[34].veinsmobility  acceleration  ETV
vector 244  PedestrianScenario.node[34].veinsmobility  co2emission  ETV
vector 250  PedestrianScenario.node[35].veinsmobility  acceleration  ETV
vector 251  PedestrianScenario.node[35].veinsmobility  co2emission  ETV
vector 256  PedestrianScenario.node[36].veinsmobility  speed  ETV
vector 261  PedestrianScenario.node[37].veinsmobility  posx  ETV
vector 262  PedestrianScenario.node[37].veinsmobility  posy  ETV
vector 257  PedestrianScenario.node[36].veinsmobility  acceleration  ETV
vector 258  PedestrianScenario.node[36].veinsmobility  co2emission  ETV
vector 263  PedestrianScenario.node[37].veinsmobility  speed  ETV
vector 268  PedestrianScenario.node[38].veinsmobility  posx  ETV
vector 269  PedestrianScenario.node[38].veinsmobility  posy  ETV
vector 264  PedestrianScenario.node[37].veinsmobility  acceleration  ETV
vector 265  PedestrianScenario.node[37].veinsmobility  co2emission  ETV
vector 270  PedestrianScenario.node[38].veinsmobility  speed  ETV
vector 275  PedestrianScenario.node[39].veinsmobility  posx  ETV
vector 276  PedestrianScenario.node[39].veinsmobility  posy  ETV
vector 271  PedestrianScenario.node[38].veinsmobility  acceleration  ETV
vector 272  PedestrianScenario.node[38].veinsmobility  co2emission  ETV
vector 277  PedestrianScenario.node[39].veinsmobility  speed  ETV
vector 282  PedestrianScenario.node[40].veinsmobility  posx  ETV
vector 283  PedestrianScenario.node[40].veinsmobility  posy  ETV
vector 289  PedestrianScenario.node[41].veinsmobility  posx  ETV
vector 290  PedestrianScenario.node[41].veinsmobility  posy  ETV
vector 278  PedestrianScenario.node[39].veinsmobility  acceleration  ETV
vector 279  PedestrianScenario.node[39].veinsmobility  co2emission  ETV
vector 284  PedestrianScenario.node[40].veinsmobility  speed  ETV
vector 291  PedestrianScenario.node[41].veinsmobility  speed  ETV
vector 296  PedestrianScenario.node[42].veinsmobility  posx  ETV
vector 297  PedestrianScenario.node[42].veinsmobility  posy  ETV
vector 285  PedestrianScenario.node[40].veinsmobility  acceleration  ETV
vector 286  PedestrianScenario.node[40].veinsmobility  co2emission  ETV
vector 292  PedestrianScenario.node[41].veinsmobility  acceleration  ETV
vector 293  PedestrianScenario.node[41].veinsmobility  co2emission  ETV
vector 298  PedestrianScenario.node[42].veinsmobility  speed  ETV
vector 303  PedestrianScenario.node[43].veinsmobility  posx  ETV
vector 304  PedestrianScenario.node[43].veinsmobility  posy  ETV
vector 299  PedestrianScenario.node[42].veinsmobility  acceleration  ETV
vector 300  PedestrianScenario.node[42].veinsmobility  co2emission  ETV
vector 305  PedestrianScenario.node[43].veinsmobility  speed  ETV
vector 310  PedestrianScenario.node[44].veinsmobility  posx  ETV
vector 311  PedestrianScenario.node[44].veinsmobility  posy  ETV
vector 306  PedestrianScenario.node[43].veinsmobility  acceleration  ETV
vector 307  PedestrianScenario.node[43].veinsmobility  co2emission  ETV
vector 312  PedestrianScenario.node[44].veinsmobility  speed  ETV
vector 317  PedestrianScenario.node[45].veinsmobility  posx  ETV
vector 318  PedestrianScenario.node[45].veinsmobility  posy  ETV
vector 313  PedestrianScenario.node[44].veinsmobility  acceleration  ETV
vector 314  PedestrianScenario.node[44].veinsmobility  co2emission  ETV
vector 319  PedestrianScenario.node[45].veinsmobility  speed  ETV
vector 324  PedestrianScenario.node[46].veinsmobility  posx  ETV
vector 325  PedestrianScenario.node[46].veinsmobility  posy  ETV
vector 331  PedestrianScenario.node[47].veinsmobility  posx  ETV
vector 332  PedestrianScenario.node[47].veinsmobility  posy  ETV
vector 320  PedestrianScenario.node[45].veinsmobility  acceleration  ETV
vector 321  PedestrianScenario.node[45].veinsmobility  co2emission  ETV
vector 326  PedestrianScenario.node[46].veinsmobility  speed  ETV
vector 333  PedestrianScenario.node[47].veinsmobility  speed  ETV
vector 338  PedestrianScenario.node[48].veinsmobility  posx  ETV
vector 339  PedestrianScenario.node[48].veinsmobility  posy  ETV
vector 327  PedestrianScenario.node[46].veinsmobility  acceleration  ETV
vector 328  PedestrianScenario.node[46].veinsmobility  co2emission  ETV
vector 334  PedestrianScenario.node[47].veinsmobility  acceleration  ETV
vector 335  PedestrianScenario.node[47].veinsmobility  co2emission  ETV
vector 340  PedestrianScenario.node[48].veinsmobility  speed  ETV
vector 345  PedestrianScenario.node[49].veinsmobility  posx  ETV
vector 346  PedestrianScenario.node[49].veinsmobility  posy  ETV
vector 341  PedestrianScenario.node[48].veinsmobility  acceleration  ETV
vector 342  PedestrianScenario.node[48].veinsmobility  co2emission  ETV
vector 347  PedestrianScenario.node[49].veinsmobility  speed  ETV
vector 352  PedestrianScenario.node[50].veinsmobility  posx  ETV
vector 353  PedestrianScenario.node[50].veinsmobility  posy  ETV
vector 348  PedestrianScenario.node[49].veinsmobility  acceleration  ETV
vector 349  PedestrianScenario.node[49].veinsmobility  co2emission  ETV
vector 354  PedestrianScenario.node[50].veinsmobility  speed  ETV
vector 359  PedestrianScenario.node[51].veinsmobility  posx  ETV
vector 360  PedestrianScenario.node[51].veinsmobility  posy  ETV
vector 355  PedestrianScenario.node[50].veinsmobility  acceleration  ETV
vector 356  PedestrianScenario.node[50].veinsmobility  co2emission  ETV
vector 361  PedestrianScenario.node[51].veinsmobility  speed  ETV
vector 366  PedestrianScenario.node[52].veinsmobility  posx  ETV
vector 367  PedestrianScenario.node[52].veinsmobility  posy  ETV
vector 362  PedestrianScenario.node[51].veinsmobility  acceleration  ETV
vector 363  PedestrianScenario.node[51].veinsmobility  co2emission  ETV
vector 368  PedestrianScenario.node[52].veinsmobility  speed  ETV
vector 373  PedestrianScenario.node[53].veinsmobility  posx  ETV
vector 374  PedestrianScenario.node[53].veinsmobility  posy  ETV
vector 369  PedestrianScenario.node[52].veinsmobility  acceleration  ETV
vector 370  PedestrianScenario.node[52].veinsmobility  co2emission  ETV
vector 375  PedestrianScenario.node[53].veinsmobility  speed  ETV
vector 380  PedestrianScenario.node[54].veinsmobility  posx  ETV
vector 381  PedestrianScenario.node[54].veinsmobility  posy  ETV
vector 376  PedestrianScenario.node[53].veinsmobility  acceleration  ETV
vector 377  PedestrianScenario.node[53].veinsmobility  co2emission  ETV
vector 382  PedestrianScenario.node[54].veinsmobility  speed  ETV
vector 387  PedestrianScenario.node[55].veinsmobility  posx  ETV
vector 388  PedestrianScenario.node[55].veinsmobility  posy  ETV
vector 383  PedestrianScenario.node[54].veinsmobility  acceleration  ETV
vector 384  PedestrianScenario.node[54].veinsmobility  co2emission  ETV
vector 389  PedestrianScenario.node[55].veinsmobility  speed  ETV
vector 394  PedestrianScenario.node[56].veinsmobility  posx  ETV
vector 395  PedestrianScenario.node[56].veinsmobility  posy  ETV
vector 390  PedestrianScenario.node[55].veinsmobility  acceleration  ETV
vector 391  PedestrianScenario.node[55].veinsmobility  co2emission  ETV
55	19478 1817 4 518 1.5 39.5 77 0.973 8.6079327954728 231.69642732351 1042.4442462428
54	21295 2053 4 518 1.5 39.5 77 -4.5 2.6 4.0648584780762 270.04077770846
53	23348 2054 3 518 1 39.5 78 2.0036613884683 13.884419185901 744.04806693298 8345.6111737724
52	25402 2077 2 518 0.5 39.5 79 14239.843758356 14424.796300193 1132141.7987204 16224966875.125
51	27479 2080 2 518 0.5 39.5 79 37048.079030633 37319.586775271 2935676.8371887 109091688451.84
vector 401  PedestrianScenario.node[57].veinsmobility  posx  ETV
vector 402  PedestrianScenario.node[57].veinsmobility  posy  ETV
vector 396  PedestrianScenario.node[56].veinsmobility  speed  ETV
vector 408  PedestrianScenario.node[58].veinsmobility  posx  ETV
vector 409  PedestrianScenario.node[58].veinsmobility  posy  ETV
vector 415  PedestrianScenario.node[59].veinsmobility  posx  ETV
vector 416  PedestrianScenario.node[59].veinsmobility  posy  ETV
vector 403  PedestrianScenario.node[57].veinsmobility  speed  ETV
vector 397  PedestrianScenario.node[56].veinsmobility  acceleration  ETV
vector 398  PedestrianScenario.node[56].veinsmobility  co2emission  ETV
vector 404  PedestrianScenario.node[57].veinsmobility  acceleration  ETV
vector 405  PedestrianScenario.node[57].veinsmobility  co2emission  ETV
vector 410  PedestrianScenario.node[58].veinsmobility  speed  ETV
vector 417  PedestrianScenario.node[59].veinsmobility  speed  ETV
vector 422  PedestrianScenario.node[60].veinsmobility  posx  ETV
vector 423  PedestrianScenario.node[60].veinsmobility  posy  ETV
vector 411  PedestrianScenario.node[58].veinsmobility  acceleration  ETV
vector 412  PedestrianScenario.node[58].veinsmobility  co2emission  ETV
vector 418  PedestrianScenario.node[59].veinsmobility  acceleration  ETV
vector 419  PedestrianScenario.node[59].veinsmobility  co2emission  ETV
vector 424  PedestrianScenario.node[60].veinsmobility  speed  ETV
vector 429  PedestrianScenario.node[61].veinsmobility  posx  ETV
vector 430  PedestrianScenario.node[61].veinsmobility  posy  ETV
vector 425  PedestrianScenario.node[60].veinsmobility  acceleration  ETV
vector 426  PedestrianScenario.node[60].veinsmobility  co2emission  ETV
vector 431  PedestrianScenario.node[61].veinsmobility  speed  ETV
vector 436  PedestrianScenario.node[62].veinsmobility  posx  ETV
vector 437  PedestrianScenario.node[62].veinsmobility  posy  ETV
vector 432  PedestrianScenario.node[61].veinsmobility  acceleration  ETV
vector 433  PedestrianScenario.node[61].veinsmobility  co2emission  ETV
vector 438  PedestrianScenario.node[62].veinsmobility  speed  ETV
vector 443  PedestrianScenario.node[63].veinsmobility  posx  ETV
vector 444  PedestrianScenario.node[63].veinsmobility  posy  ETV
vector 439  PedestrianScenario.node[62].veinsmobility  acceleration  ETV
vector 440  PedestrianScenario.node[62].veinsmobility  co2emission  ETV
vector 445  PedestrianScenario.node[63].veinsmobility  speed  ETV
vector 450  PedestrianScenario.node[64].veinsmobility  posx  ETV
vector 451  PedestrianScenario.node[64].veinsmobility  posy  ETV
vector 457  PedestrianScenario.node[65].veinsmobility  posx  ETV
vector 458  PedestrianScenario.node[65].veinsmobility  posy  ETV
vector 446  PedestrianScenario.node[63].veinsmobility  acceleration  ETV
vector 447  PedestrianScenario.node[63].veinsmobility  co2emission  ETV
vector 452  PedestrianScenario.node[64].veinsmobility  speed  ETV
vector 459  PedestrianScenario.node[65].veinsmobility  speed  ETV
vector 464  PedestrianScenario.node[66].veinsmobility  posx  ETV
vector 465  PedestrianScenario.node[66].veinsmobility  posy  ETV
vector 453  PedestrianScenario.node[64].veinsmobility  acceleration  ETV
vector 454  PedestrianScenario.node[64].veinsmobility  co2emission  ETV
vector 460  PedestrianScenario.node[65].veinsmobility  acceleration  ETV
vector 461  PedestrianScenario.node[65].veinsmobility  co2emission  ETV
vector 466  PedestrianScenario.node[66].veinsmobility  speed  ETV
vector 471  PedestrianScenario.node[67].veinsmobility  posx  ETV
vector 472  PedestrianScenario.node[67].veinsmobility  posy  ETV
vector 467  PedestrianScenario.node[66].veinsmobility  acceleration  ETV
vector 468  PedestrianScenario.node[66].veinsmobility  co2emission  ETV
vector 473  PedestrianScenario.node[67].veinsmobility  speed  ETV
vector 478  PedestrianScenario.node[68].veinsmobility  posx  ETV
vector 479  PedestrianScenario.node[68].veinsmobility  posy  ETV
vector 474  PedestrianScenario.node[67].veinsmobility  acceleration  ETV
vector 475  PedestrianScenario.node[67].veinsmobility  co2emission  ETV
vector 480  PedestrianScenario.node[68].veinsmobility  speed  ETV
vector 485  PedestrianScenario.node[69].veinsmobility  posx  ETV
vector 486  PedestrianScenario.node[69].veinsmobility  posy  ETV
vector 481  PedestrianScenario.node[68].veinsmobility  acceleration  ETV
vector 482  PedestrianScenario.node[68].veinsmobility  co2emission  ETV
vector 487  PedestrianScenario.node[69].veinsmobility  speed  ETV
vector 492  PedestrianScenario.node[70].veinsmobility  posx  ETV
vector 493  PedestrianScenario.node[70].veinsmobility  posy  ETV
vector 499  PedestrianScenario.node[71].veinsmobility  posx  ETV
vector 500  PedestrianScenario.node[71].veinsmobility  posy  ETV
vector 506  PedestrianScenario.node[72].veinsmobility  posx  ETV
vector 507  PedestrianScenario.node[72].veinsmobility  posy  ETV
vector 513  PedestrianScenario.node[73].veinsmobility  posx  ETV
vector 514  PedestrianScenario.node[73].veinsmobility  posy  ETV
vector 488  PedestrianScenario.node[69].veinsmobility  acceleration  ETV
vector 489  PedestrianScenario.node[69].veinsmobility  co2emission  ETV
vector 494  PedestrianScenario.node[70].veinsmobility  speed  ETV
vector 501  PedestrianScenario.node[71].veinsmobility  speed  ETV
vector 508  PedestrianScenario.node[72].veinsmobility  speed  ETV
vector 515  PedestrianScenario.node[73].veinsmobility  speed  ETV
vector 520  PedestrianScenario.node[74].veinsmobility  posx  ETV
vector 521  PedestrianScenario.node[74].veinsmobility  posy  ETV
vector 495  PedestrianScenario.node[70].veinsmobility  acceleration  ETV
vector 496  PedestrianScenario.node[70].veinsmobility  co2emission  ETV
vector 502  PedestrianScenario.node[71].veinsmobility  acceleration  ETV
vector 503  PedestrianScenario.node[71].veinsmobility  co2emission  ETV
vector 509  PedestrianScenario.node[72].veinsmobility  acceleration  ETV
vector 510  PedestrianScenario.node[72].veinsmobility  co2emission  ETV
vector 516  PedestrianScenario.node[73].veinsmobility  acceleration  ETV
vector 517  PedestrianScenario.node[73].veinsmobility  co2emission  ETV
vector 522  PedestrianScenario.node[74].veinsmobility  speed  ETV
vector 527  PedestrianScenario.node[75].veinsmobility  posx  ETV
vector 528  PedestrianScenario.node[75].veinsmobility  posy  ETV
vector 523  PedestrianScenario.node[74].veinsmobility  acceleration  ETV
vector 524  PedestrianScenario.node[74].veinsmobility  co2emission  ETV
vector 529  PedestrianScenario.node[75].veinsmobility  speed  ETV
vector 534  PedestrianScenario.node[76].veinsmobility  posx  ETV
vector 535  PedestrianScenario.node[76].veinsmobility  posy  ETV
vector 541  PedestrianScenario.node[77].veinsmobility  posx  ETV
vector 542  PedestrianScenario.node[77].veinsmobility  posy  ETV
vector 530  PedestrianScenario.node[75].veinsmobility  acceleration  ETV
vector 531  PedestrianScenario.node[75].veinsmobility  co2emission  ETV
vector 536  PedestrianScenario.node[76].veinsmobility  speed  ETV
vector 543  PedestrianScenario.node[77].veinsmobility  speed  ETV
vector 548  PedestrianScenario.node[78].veinsmobility  posx  ETV
vector 549  PedestrianScenario.node[78].veinsmobility  posy  ETV
vector 537  PedestrianScenario.node[76].veinsmobility  acceleration  ETV
vector 538  PedestrianScenario.node[76].veinsmobility  co2emission  ETV
vector 544  PedestrianScenario.node[77].veinsmobility  acceleration  ETV
vector 545  PedestrianScenario.node[77].veinsmobility  co2emission  ETV
vector 550  PedestrianScenario.node[78].veinsmobility  speed  ETV
vector 557  PedestrianScenario.node[79].veinsmobility  posx  ETV
vector 558  PedestrianScenario.node[79].veinsmobility  posy  ETV
vector 551  PedestrianScenario.node[78].veinsmobility  acceleration  ETV
vector 552  PedestrianScenario.node[78].veinsmobility  co2emission  ETV
vector 559  PedestrianScenario.node[79].veinsmobility  speed  ETV
vector 564  PedestrianScenario.node[80].veinsmobility  posx  ETV
vector 565  PedestrianScenario.node[80].veinsmobility  posy  ETV
vector 560  PedestrianScenario.node[79].veinsmobility  acceleration  ETV
vector 561  PedestrianScenario.node[79].veinsmobility  co2emission  ETV
vector 566  PedestrianScenario.node[80].veinsmobility  speed  ETV
vector 571  PedestrianScenario.node[81].veinsmobility  posx  ETV
vector 572  PedestrianScenario.node[81].veinsmobility  posy  ETV
vector 567  PedestrianScenario.node[80].veinsmobility  acceleration  ETV
vector 568  PedestrianScenario.node[80].veinsmobility  co2emission  ETV
vector 573  PedestrianScenario.node[81].veinsmobility  speed  ETV
vector 578  PedestrianScenario.node[82].veinsmobility  posx  ETV
vector 579  PedestrianScenario.node[82].veinsmobility  posy  ETV
vector 574  PedestrianScenario.node[81].veinsmobility  acceleration  ETV
vector 575  PedestrianScenario.node[81].veinsmobility  co2emission  ETV
496	38425 386 1669 1740 51.5 58.5 15 0.973 5.9378180874811 51.432965452257 229.53401944337
495	38811 427 1669 1740 51.5 58.5 15 -2.7944172992614 2.6 10.237862764806 73.305649021464
494	39238 463 1668 1740 51 58.5 16 2.1864789934198 9.3477483890878 94.122922674072 614.86361545707
493	39701 488 1523 1740 50.5 58.5 17 8376.8542245749 8391.5434604537 142510.15214011 1194655937.2686
492	40189 493 1523 1740 50.5 58.5 17 35390.742412756 35429.397272377 601930.60840903 21312971250.245
vector 580  PedestrianScenario.node[82].veinsmobility  speed  ETV
vector 585  PedestrianScenario.node[83].veinsmobility  posx  ETV
vector 586  PedestrianScenario.node[83].veinsmobility  posy  ETV
vector 581  PedestrianScenario.node[82].veinsmobility  acceleration  ETV
vector 582  PedestrianScenario.node[82].veinsmobility  co2emission  ETV
vector 587  PedestrianScenario.node[83].veinsmobility  speed  ETV
vector 592  PedestrianScenario.node[84].veinsmobility  posx  ETV
vector 593  PedestrianScenario.node[84].veinsmobility  posy  ETV
vector 599  PedestrianScenario.node[85].veinsmobility  posx  ETV