file 488475 1420303248                                          
version 2
run nodebug-0-20150103-13:40:19-31883
attr configname nodebug
attr datetime 20150103-13:40:19
attr experiment nodebug
attr inifile omnetpp.ini
attr iterationvars ""
attr iterationvars2 $repetition=0
attr measurement ""
attr network InfoBusScenario
attr processid 31883
attr repetition 0
attr replication #0
attr resultdir results
attr runnumber 0
attr seedset 0

vector 2  InfoBusScenario.node[0].veinsmobility  posx  ETV
vector 3  InfoBusScenario.node[0].veinsmobility  posy  ETV
vector 9  InfoBusScenario.node[1].veinsmobility  posx  ETV
vector 10  InfoBusScenario.node[1].veinsmobility  posy  ETV
vector 16  InfoBusScenario.node[2].veinsmobility  posx  ETV
vector 17  InfoBusScenario.node[2].veinsmobility  posy  ETV
vector 23  InfoBusScenario.node[3].veinsmobility  posx  ETV
vector 24  InfoBusScenario.node[3].veinsmobility  posy  ETV
vector 30  InfoBusScenario.node[4].veinsmobility  posx  ETV
vector 31  InfoBusScenario.node[4].veinsmobility  posy  ETV
vector 37  InfoBusScenario.node[5].veinsmobility  posx  ETV
vector 38  InfoBusScenario.node[5].veinsmobility  posy  ETV
vector 44  InfoBusScenario.node[6].veinsmobility  posx  ETV
vector 45  InfoBusScenario.node[6].veinsmobility  posy  ETV
vector 4  InfoBusScenario.node[0].veinsmobility  speed  ETV
vector 11  InfoBusScenario.node[1].veinsmobility  speed  ETV
vector 18  InfoBusScenario.node[2].veinsmobility  speed  ETV
vector 25  InfoBusScenario.node[3].veinsmobility  speed  ETV
vector 32  InfoBusScenario.node[4].veinsmobility  speed  ETV
vector 39  InfoBusScenario.node[5].veinsmobility  speed  ETV
vector 46  InfoBusScenario.node[6].veinsmobility  speed  ETV
vector 51  InfoBusScenario.node[7].veinsmobility  posx  ETV
vector 52  InfoBusScenario.node[7].veinsmobility  posy  ETV
vector 5  InfoBusScenario.node[0].veinsmobility  acceleration  ETV
vector 6  InfoBusScenario.node[0].veinsmobility  co2emission  ETV
vector 12  InfoBusScenario.node[1].veinsmobility  acceleration  ETV
vector 13  InfoBusScenario.node[1].veinsmobility  co2emission  ETV
vector 19  InfoBusScenario.node[2].veinsmobility  acceleration  ETV
vector 20  InfoBusScenario.node[2].veinsmobility  co2emission  ETV
vector 26  InfoBusScenario.node[3].veinsmobility  acceleration  ETV
vector 27  InfoBusScenario.node[3].veinsmobility  co2emission  ETV
vector 33  InfoBusScenario.node[4].veinsmobility  acceleration  ETV
vector 34  InfoBusScenario.node[4].veinsmobility  co2emission  ETV
vector 40  InfoBusScenario.node[5].veinsmobility  acceleration  ETV
vector 41  InfoBusScenario.node[5].veinsmobility  co2emission  ETV
vector 47  InfoBusScenario.node[6].veinsmobility  acceleration  ETV
vector 48  InfoBusScenario.node[6].veinsmobility  co2emission  ETV
vector 53  InfoBusScenario.node[7].veinsmobility  speed  ETV
vector 58  InfoBusScenario.node[8].veinsmobility  posx  ETV
vector 59  InfoBusScenario.node[8].veinsmobility  posy  ETV
vector 54  InfoBusScenario.node[7].veinsmobility  acceleration  ETV
vector 55  InfoBusScenario.node[7].veinsmobility  co2emission  ETV
vector 60  InfoBusScenario.node[8].veinsmobility  speed  ETV
vector 65  InfoBusScenario.node[9].veinsmobility  posx  ETV
vector 66  InfoBusScenario.node[9].veinsmobility  posy  ETV
vector 61  InfoBusScenario.node[8].veinsmobility  acceleration  ETV
vector 62  InfoBusScenario.node[8].veinsmobility  co2emission  ETV
vector 67  InfoBusScenario.node[9].veinsmobility  speed  ETV
vector 72  InfoBusScenario.node[10].veinsmobility  posx  ETV
vector 73  InfoBusScenario.node[10].veinsmobility  posy  ETV
vector 68  InfoBusScenario.node[9].veinsmobility  acceleration  ETV
vector 69  InfoBusScenario.node[9].veinsmobility  co2emission  ETV
vector 74  InfoBusScenario.node[10].veinsmobility  speed  ETV
vector 79  InfoBusScenario.node[11].veinsmobility  posx  ETV
vector 80  InfoBusScenario.node[11].veinsmobility  posy  ETV
vector 75  InfoBusScenario.node[10].veinsmobility  acceleration  ETV
vector 76  InfoBusScenario.node[10].veinsmobility  co2emission  ETV
vector 81  InfoBusScenario.node[11].veinsmobility  speed  ETV
vector 86  InfoBusScenario.node[12].veinsmobility  posx  ETV
vector 87  InfoBusScenario.node[12].veinsmobility  posy  ETV
vector 82  InfoBusScenario.node[11].veinsmobility  acceleration  ETV
vector 83  InfoBusScenario.node[11].veinsmobility  co2emission  ETV
vector 88  InfoBusScenario.node[12].veinsmobility  speed  ETV
vector 93  InfoBusScenario.node[13].veinsmobility  posx  ETV
vector 94  InfoBusScenario.node[13].veinsmobility  posy  ETV
vector 89  InfoBusScenario.node[12].veinsmobility  acceleration  ETV
vector 90  InfoBusScenario.node[12].veinsmobility  co2emission  ETV
vector 95  InfoBusScenario.node[13].veinsmobility  speed  ETV
vector 100  InfoBusScenario.node[14].veinsmobility  posx  ETV
vector 101  InfoBusScenario.node[14].veinsmobility  posy  ETV
vector 96  InfoBusScenario.node[13].veinsmobility  acceleration  ETV
vector 97  InfoBusScenario.node[13].veinsmobility  co2emission  ETV
vector 102  InfoBusScenario.node[14].veinsmobility  speed  ETV
vector 107  InfoBusScenario.node[15].veinsmobility  posx  ETV
vector 108  InfoBusScenario.node[15].veinsmobility  posy  ETV
vector 103  InfoBusScenario.node[14].veinsmobility  acceleration  ETV
vector 104  InfoBusScenario.node[14].veinsmobility  co2emission  ETV
vector 109  InfoBusScenario.node[15].veinsmobility  speed  ETV
vector 114  InfoBusScenario.node[16].veinsmobility  posx  ETV
vector 115  InfoBusScenario.node[16].veinsmobility  posy  ETV
vector 110  InfoBusScenario.node[15].veinsmobility  acceleration  ETV
vector 111  InfoBusScenario.node[15].veinsmobility  co2emission  ETV
vector 116  InfoBusScenario.node[16].veinsmobility  speed  ETV
vector 121  InfoBusScenario.node[17].veinsmobility  posx  ETV
vector 122  InfoBusScenario.node[17].veinsmobility  posy  ETV
vector 117  InfoBusScenario.node[16].veinsmobility  acceleration  ETV
vector 118  InfoBusScenario.node[16].veinsmobility  co2emission  ETV
vector 123  InfoBusScenario.node[17].veinsmobility  speed  ETV
vector 128  InfoBusScenario.node[18].veinsmobility  posx  ETV
vector 129  InfoBusScenario.node[18].veinsmobility  posy  ETV
vector 124  InfoBusScenario.node[17].veinsmobility  acceleration  ETV
vector 125  InfoBusScenario.node[17].veinsmobility  co2emission  ETV
vector 130  InfoBusScenario.node[18].veinsmobility  speed  ETV
vector 135  InfoBusScenario.node[19].veinsmobility  posx  ETV
vector 136  InfoBusScenario.node[19].veinsmobility  posy  ETV
vector 131  InfoBusScenario.node[18].veinsmobility  acceleration  ETV
vector 132  InfoBusScenario.node[18].veinsmobility  co2emission  ETV
vector 137  InfoBusScenario.node[19].veinsmobility  speed  ETV
vector 142  InfoBusScenario.node[20].veinsmobility  posx  ETV
vector 143  InfoBusScenario.node[20].veinsmobility  posy  ETV
vector 138  InfoBusScenario.node[19].veinsmobility  acceleration  ETV
vector 139  InfoBusScenario.node[19].veinsmobility  co2emission  ETV
vector 144  InfoBusScenario.node[20].veinsmobility  speed  ETV
vector 149  InfoBusScenario.node[21].veinsmobility  posx  ETV
vector 150  InfoBusScenario.node[21].veinsmobility  posy  ETV
vector 145  InfoBusScenario.node[20].veinsmobility  acceleration  ETV
vector 146  InfoBusScenario.node[20].veinsmobility  co2emission  ETV
vector 151  InfoBusScenario.node[21].veinsmobility  speed  ETV
vector 156  InfoBusScenario.node[22].veinsmobility  posx  ETV
vector 157  InfoBusScenario.node[22].veinsmobility  posy  ETV
vector 152  InfoBusScenario.node[21].veinsmobility  acceleration  ETV
vector 153  InfoBusScenario.node[21].veinsmobility  co2emission  ETV
vector 158  InfoBusScenario.node[22].veinsmobility  speed  ETV
vector 159  InfoBusScenario.node[22].veinsmobility  acceleration  ETV
vector 160  InfoBusScenario.node[22].veinsmobility  co2emission  ETV
vector 163  InfoBusScenario.node[23].veinsmobility  posx  ETV
vector 164  InfoBusScenario.node[23].veinsmobility  posy  ETV
vector 165  InfoBusScenario.node[23].veinsmobility  speed  ETV
vector 170  InfoBusScenario.node[24].veinsmobility  posx  ETV
vector 171  InfoBusScenario.node[24].veinsmobility  posy  ETV
vector 166  InfoBusScenario.node[23].veinsmobility  acceleration  ETV
vector 167  InfoBusScenario.node[23].veinsmobility  co2emission  ETV
vector 172  InfoBusScenario.node[24].veinsmobility  speed  ETV
vector 177  InfoBusScenario.node[25].veinsmobility  posx  ETV
vector 178  InfoBusScenario.node[25].veinsmobility  posy  ETV
vector 173  InfoBusScenario.node[24].veinsmobility  acceleration  ETV
vector 174  InfoBusScenario.node[24].veinsmobility  co2emission  ETV
vector 179  InfoBusScenario.node[25].veinsmobility  speed  ETV
vector 184  InfoBusScenario.node[26].veinsmobility  posx  ETV
vector 185  InfoBusScenario.node[26].veinsmobility  posy  ETV
vector 180  InfoBusScenario.node[25].veinsmobility  acceleration  ETV
vector 181  InfoBusScenario.node[25].veinsmobility  co2emission  ETV
vector 186  InfoBusScenario.node[26].veinsmobility  speed  ETV
vector 191  InfoBusScenario.node[27].veinsmobility  posx  ETV
vector 192  InfoBusScenario.node[27].veinsmobility  posy  ETV
vector 187  InfoBusScenario.node[26].veinsmobility  acceleration  ETV
vector 188  InfoBusScenario.node[26].veinsmobility  co2emission  ETV
vector 193  InfoBusScenario.node[27].veinsmobility  speed  ETV
vector 198  InfoBusScenario.node[28].veinsmobility  posx  ETV
vector 199  InfoBusScenario.node[28].veinsmobility  posy  ETV
vector 194  InfoBusScenario.node[27].veinsmobility  acceleration  ETV
vector 195  InfoBusScenario.node[27].veinsmobility  co2emission  ETV
vector 200  InfoBusScenario.node[28].veinsmobility  speed  ETV
vector 205  InfoBusScenario.node[29].veinsmobility  posx  ETV
vector 206  InfoBusScenario.node[29].veinsmobility  posy  ETV
vector 201  InfoBusScenario.node[28].veinsmobility  acceleration  ETV
vector 202  InfoBusScenario.node[28].veinsmobility  co2emission  ETV
vector 207  InfoBusScenario.node[29].veinsmobility  speed  ETV
vector 212  InfoBusScenario.node[30].veinsmobility  posx  ETV
vector 213  InfoBusScenario.node[30].veinsmobility  posy  ETV
vector 219  InfoBusScenario.node[31].veinsmobility  posx  ETV
vector 220  InfoBusScenario.node[31].veinsmobility  posy  ETV
vector 208  InfoBusScenario.node[29].veinsmobility  acceleration  ETV
vector 209  InfoBusScenario.node[29].veinsmobility  co2emission  ETV
vector 214  InfoBusScenario.node[30].veinsmobility  speed  ETV
vector 221  InfoBusScenario.node[31].veinsmobility  speed  ETV
vector 226  InfoBusScenario.node[32].veinsmobility  posx  ETV
vector 227  InfoBusScenario.node[32].veinsmobility  posy  ETV
vector 215  InfoBusScenario.node[30].veinsmobility  acceleration  ETV
vector 216  InfoBusScenario.node[30].veinsmobility  co2emission  ETV
vector 222  InfoBusScenario.node[31].veinsmobility  acceleration  ETV
vector 223  InfoBusScenario.node[31].veinsmobility  co2emission  ETV
vector 228  InfoBusScenario.node[32].veinsmobility  speed  ETV
vector 233  InfoBusScenario.node[33].veinsmobility  posx  ETV
vector 234  InfoBusScenario.node[33].veinsmobility  posy  ETV
vector 229  InfoBusScenario.node[32].veinsmobility  acceleration  ETV
vector 230  InfoBusScenario.node[32].veinsmobility  co2emission  ETV
vector 235  InfoBusScenario.node[33].veinsmobility  speed  ETV
vector 240  InfoBusScenario.node[34].veinsmobility  posx  ETV
vector 241  InfoBusScenario.node[34].veinsmobility  posy  ETV
vector 236  InfoBusScenario.node[33].veinsmobility  acceleration  ETV
vector 237  InfoBusScenario.node[33].veinsmobility  co2emission  ETV
vector 242  InfoBusScenario.node[34].veinsmobility  speed  ETV
vector 247  InfoBusScenario.node[35].veinsmobility  posx  ETV
vector 248  InfoBusScenario.node[35].veinsmobility  posy  ETV
vector 243  InfoBusScenario.node[34].veinsmobility  acceleration  ETV
vector 244  InfoBusScenario.node[34].veinsmobility  co2emission  ETV
vector 249  InfoBusScenario.node[35].veinsmobility  speed  ETV
vector 254  InfoBusScenario.node[36].veinsmobility  posx  ETV
vector 255  InfoBusScenario.node[36].veinsmobility  posy  ETV
vector 250  InfoBusScenario.node[35].veinsmobility  acceleration  ETV
vector 251  InfoBusScenario.node[35].veinsmobility  co2emission  ETV
vector 256  InfoBusScenario.node[36].veinsmobility  speed  ETV
vector 261  InfoBusScenario.node[37].veinsmobility  posx  ETV
vector 262  InfoBusScenario.node[37].veinsmobility  posy  ETV
vector 257  InfoBusScenario.node[36].veinsmobility  acceleration  ETV
vector 258  InfoBusScenario.node[36].veinsmobility  co2emission  ETV
vector 263  InfoBusScenario.node[37].veinsmobility  speed  ETV
vector 268  InfoBusScenario.node[38].veinsmobility  posx  ETV
vector 269  InfoBusScenario.node[38].veinsmobility  posy  ETV
vector 264  InfoBusScenario.node[37].veinsmobility  acceleration  ETV
vector 265  InfoBusScenario.node[37].veinsmobility  co2emission  ETV
vector 270  InfoBusScenario.node[38].veinsmobility  speed  ETV
vector 275  InfoBusScenario.node[39].veinsmobility  posx  ETV
vector 276  InfoBusScenario.node[39].veinsmobility  posy  ETV
vector 271  InfoBusScenario.node[38].veinsmobility  acceleration  ETV
vector 272  InfoBusScenario.node[38].veinsmobility  co2emission  ETV
vector 277  InfoBusScenario.node[39].veinsmobility  speed  ETV
vector 282  InfoBusScenario.node[40].veinsmobility  posx  ETV
vector 283  InfoBusScenario.node[40].veinsmobility  posy  ETV
vector 278  InfoBusScenario.node[39].veinsmobility  acceleration  ETV
vector 279  InfoBusScenario.node[39].veinsmobility  co2emission  ETV
vector 284  InfoBusScenario.node[40].veinsmobility  speed  ETV
vector 289  InfoBusScenario.node[41].veinsmobility  posx  ETV
vector 290  InfoBusScenario.node[41].veinsmobility  posy  ETV
vector 285  InfoBusScenario.node[40].veinsmobility  acceleration  ETV
vector 286  InfoBusScenario.node[40].veinsmobility  co2emission  ETV
vector 291  InfoBusScenario.node[41].veinsmobility  speed  ETV
vector 296  InfoBusScenario.node[42].veinsmobility  posx  ETV
vector 297  InfoBusScenario.node[42].veinsmobility  posy  ETV
vector 292  InfoBusScenario.node[41].veinsmobility  acceleration  ETV
vector 293  InfoBusScenario.node[41].veinsmobility  co2emission  ETV
vector 298  InfoBusScenario.node[42].veinsmobility  speed  ETV
vector 305  InfoBusScenario.node[43].veinsmobility  posx  ETV
vector 306  InfoBusScenario.node[43].veinsmobility  posy  ETV
vector 299  InfoBusScenario.node[42].veinsmobility  acceleration  ETV
vector 300  InfoBusScenario.node[42].veinsmobility  co2emission  ETV
vector 307  InfoBusScenario.node[43].veinsmobility  speed  ETV
vector 312  InfoBusScenario.node[44].veinsmobility  posx  ETV
vector 313  InfoBusScenario.node[44].veinsmobility  posy  ETV
vector 308  InfoBusScenario.node[43].veinsmobility  acceleration  ETV
vector 309  InfoBusScenario.node[43].veinsmobility  co2emission  ETV
vector 314  InfoBusScenario.node[44].veinsmobility  speed  ETV
34	14778 1743 4 79 1.5 39 76 0.973 8.8053478148037 231.15948982328 1079.6298668607
33	16521 1985 4 79 1.5 39 76 -3.4770010142619 2.6 10.002672297905 251.90013344785
32	18506 1967 3 79 1 39 77 1.9984376355134 13.877150025701 741.86560252056 8359.7840663053
31	20473 1994 2 79 0.5 39 78 14240.099513617 14424.793151468 1117852.6601688 16020785526.313
30	22467 1991 2 79 0.5 39 78 37048.077865304 37316.981337699 2898410.9994443 107702937205.21
vector 319  InfoBusScenario.node[45].veinsmobility  posx  ETV
vector 320  InfoBusScenario.node[45].veinsmobility  posy  ETV
vector 326  InfoBusScenario.node[46].veinsmobility  posx  ETV
vector 327  InfoBusScenario.node[46].veinsmobility  posy  ETV
vector 315  InfoBusScenario.node[44].veinsmobility  acceleration  ETV
vector 316  InfoBusScenario.node[44].veinsmobility  co2emission  ETV
vector 328  InfoBusScenario.node[46].veinsmobility  speed  ETV
vector 321  InfoBusScenario.node[45].veinsmobility  speed  ETV
vector 333  InfoBusScenario.node[47].veinsmobility  posx  ETV
vector 334  InfoBusScenario.node[47].veinsmobility  posy  ETV
vector 329  InfoBusScenario.node[46].veinsmobility  acceleration  ETV
vector 330  InfoBusScenario.node[46].veinsmobility  co2emission  ETV
vector 322  InfoBusScenario.node[45].veinsmobility  acceleration  ETV
vector 323  InfoBusScenario.node[45].veinsmobility  co2emission  ETV
vector 335  InfoBusScenario.node[47].veinsmobility  speed  ETV
vector 340  InfoBusScenario.node[48].veinsmobility  posx  ETV
vector 341  InfoBusScenario.node[48].veinsmobility  posy  ETV
vector 336  InfoBusScenario.node[47].veinsmobility  acceleration  ETV
vector 337  InfoBusScenario.node[47].veinsmobility  co2emission  ETV
vector 342  InfoBusScenario.node[48].veinsmobility  speed  ETV
vector 347  InfoBusScenario.node[49].veinsmobility  posx  ETV
vector 348  InfoBusScenario.node[49].veinsmobility  posy  ETV
vector 343  InfoBusScenario.node[48].veinsmobility  acceleration  ETV
vector 344  InfoBusScenario.node[48].veinsmobility  co2emission  ETV
vector 349  InfoBusScenario.node[49].veinsmobility  speed  ETV
vector 354  InfoBusScenario.node[50].veinsmobility  posx  ETV
vector 355  InfoBusScenario.node[50].veinsmobility  posy  ETV
vector 350  InfoBusScenario.node[49].veinsmobility  acceleration  ETV
vector 351  InfoBusScenario.node[49].veinsmobility  co2emission  ETV
vector 356  InfoBusScenario.node[50].veinsmobility  speed  ETV
vector 361  InfoBusScenario.node[51].veinsmobility  posx  ETV
vector 362  InfoBusScenario.node[51].veinsmobility  posy  ETV
vector 357  InfoBusScenario.node[50].veinsmobility  acceleration  ETV
vector 358  InfoBusScenario.node[50].veinsmobility  co2emission  ETV
vector 363  InfoBusScenario.node[51].veinsmobility  speed  ETV
vector 368  InfoBusScenario.node[52].veinsmobility  posx  ETV
vector 369  InfoBusScenario.node[52].veinsmobility  posy  ETV
vector 375  InfoBusScenario.node[53].veinsmobility  posx  ETV
vector 376  InfoBusScenario.node[53].veinsmobility  posy  ETV
vector 382  InfoBusScenario.node[54].veinsmobility  posx  ETV
vector 383  InfoBusScenario.node[54].veinsmobility  posy  ETV
vector 389  InfoBusScenario.node[55].veinsmobility  posx  ETV
vector 390  InfoBusScenario.node[55].veinsmobility  posy  ETV
vector 364  InfoBusScenario.node[51].veinsmobility  acceleration  ETV
vector 365  InfoBusScenario.node[51].veinsmobility  co2emission  ETV
vector 370  InfoBusScenario.node[52].veinsmobility  speed  ETV
vector 377  InfoBusScenario.node[53].veinsmobility  speed  ETV
vector 384  InfoBusScenario.node[54].veinsmobility  speed  ETV
vector 391  InfoBusScenario.node[55].veinsmobility  speed  ETV
vector 396  InfoBusScenario.node[56].veinsmobility  posx  ETV
vector 397  InfoBusScenario.node[56].veinsmobility  posy  ETV
vector 371  InfoBusScenario.node[52].veinsmobility  acceleration  ETV
vector 372  InfoBusScenario.node[52].veinsmobility  co2emission  ETV
vector 378  InfoBusScenario.node[53].veinsmobility  acceleration  ETV
vector 379  InfoBusScenario.node[53].veinsmobility  co2emission  ETV
vector 385  InfoBusScenario.node[54].veinsmobility  acceleration  ETV
vector 386  InfoBusScenario.node[54].veinsmobility  co2emission  ETV
vector 392  InfoBusScenario.node[55].veinsmobility  acceleration  ETV
vector 393  InfoBusScenario.node[55].veinsmobility  co2emission  ETV
vector 398  InfoBusScenario.node[56].veinsmobility  speed  ETV
vector 403  InfoBusScenario.node[57].veinsmobility  posx  ETV
vector 404  InfoBusScenario.node[57].veinsmobility  posy  ETV
vector 399  InfoBusScenario.node[56].veinsmobility  acceleration  ETV
vector 400  InfoBusScenario.node[56].veinsmobility  co2emission  ETV
vector 405  InfoBusScenario.node[57].veinsmobility  speed  ETV
vector 410  InfoBusScenario.node[58].veinsmobility  posx  ETV
vector 411  InfoBusScenario.node[58].veinsmobility  posy  ETV
vector 406  InfoBusScenario.node[57].veinsmobility  acceleration  ETV
vector 407  InfoBusScenario.node[57].veinsmobility  co2emission  ETV
vector 412  InfoBusScenario.node[58].veinsmobility  speed  ETV
vector 417  InfoBusScenario.node[59].veinsmobility  posx  ETV
vector 418  InfoBusScenario.node[59].veinsmobility  posy  ETV
vector 413  InfoBusScenario.node[58].veinsmobility  acceleration  ETV
vector 414  InfoBusScenario.node[58].veinsmobility  co2emission  ETV
vector 419  InfoBusScenario.node[59].veinsmobility  speed  ETV
vector 424  InfoBusScenario.node[60].veinsmobility  posx  ETV
vector 425  InfoBusScenario.node[60].veinsmobility  posy  ETV
vector 431  InfoBusScenario.node[61].veinsmobility  posx  ETV
vector 432  InfoBusScenario.node[61].veinsmobility  posy  ETV
vector 438  InfoBusScenario.node[62].veinsmobility  posx  ETV
vector 439  InfoBusScenario.node[62].veinsmobility  posy  ETV
vector 420  InfoBusScenario.node[59].veinsmobility  acceleration  ETV
vector 421  InfoBusScenario.node[59].veinsmobility  co2emission  ETV
vector 426  InfoBusScenario.node[60].veinsmobility  speed  ETV
vector 433  InfoBusScenario.node[61].veinsmobility  speed  ETV
vector 440  InfoBusScenario.node[62].veinsmobility  speed  ETV
vector 445  InfoBusScenario.node[63].veinsmobility  posx  ETV
vector 446  InfoBusScenario.node[63].veinsmobility  posy  ETV
vector 427  InfoBusScenario.node[60].veinsmobility  acceleration  ETV
vector 428  InfoBusScenario.node[60].veinsmobility  co2emission  ETV
vector 434  InfoBusScenario.node[61].veinsmobility  acceleration  ETV
vector 435  InfoBusScenario.node[61].veinsmobility  co2emission  ETV
vector 441  InfoBusScenario.node[62].veinsmobility  acceleration  ETV
vector 442  InfoBusScenario.node[62].veinsmobility  co2emission  ETV
vector 447  InfoBusScenario.node[63].veinsmobility  speed  ETV
vector 452  InfoBusScenario.node[64].veinsmobility  posx  ETV
vector 453  InfoBusScenario.node[64].veinsmobility  posy  ETV
vector 448  InfoBusScenario.node[63].veinsmobility  acceleration  ETV
vector 449  InfoBusScenario.node[63].veinsmobility  co2emission  ETV
vector 454  InfoBusScenario.node[64].veinsmobility  speed  ETV
vector 459  InfoBusScenario.node[65].veinsmobility  posx  ETV
vector 460  InfoBusScenario.node[65].veinsmobility  posy  ETV
vector 455  InfoBusScenario.node[64].veinsmobility  acceleration  ETV
vector 456  InfoBusScenario.node[64].veinsmobility  co2emission  ETV
2	31241 2651 2 108 0.5 53.5 107 37012.748183672 37364.821082893 3977213.4301102 147835177737.16
3	33892 2651 2 108 0.5 53.5 107 16068.438028293 16361.53945616 1739224.7339054 28270757508.288
4	36543 2622 3 108 1 53.5 106 2.07598186382 13.889843015617 1189.0486451643 14719.965104613
5	39165 2705 4 108 1.5 53.5 105 -3.5870700315306 2.6 16.273862125855 229.34822144424
6	41870 2437 4 108 1.5 53.5 105 0.973 8.2379094132111 297.94401815682 1234.334822582
9	44307 2649 2 108 0.5 53.5 107 36987.564227792 37180.431115095 3969228.5620024 147241322451.56
10	46956 2757 2 108 0.5 53.5 107 11808.877742848 12195.216135326 1286364.5723649 15466538477.017
11	49713 2724 3 108 1 53.5 106 1.5435239795994 11.999208674813 1110.1698094126 12413.902563969
12	52437 2882 4 108 1.5 53.5 105 -3.3657456841327 1.7234593484085 20.7141396362 103.52203518683
13	55319 2645 4 108 1.5 53.5 105 0.973 6.1098609886403 248.28128573066 740.75992243025
16	57964 2754 2 108 0.5 53.5 107 37371.197657107 37481.409254406 4004561.4920641 149874061334.64
17	60718 2756 2 108 0.5 53.5 107 10624.784970492 11218.731832873 1173893.7855366 12882560819.293
18	63474 2726 3 108 1 53.5 106 1.9791591484864 13.999729095947 1333.5094153949 17762.554872134
19	66200 2895 4 108 1.5 53.5 105 -2.5374932986443 2.6 23.997316751676 89.653507679569
20	69095 2671 4 108 1.5 53.5 105 0.973 9.6638246992666 263.88679116902 881.57758532612
23	71766 2750 2 108 0.5 53.5 107 38831.330621469 39158.205587813 4180353.0136856 163321793854.27
24	74516 2745 2 108 0.5 53.5 107 13154.080223951 13374.017041266 1414793.905301 18707609966.961
25	77261 2730 3 108 1 53.5 106 2.0740113576899 17.994604659025 1182.8968288948 15784.097218894
26	79991 2732 4 108 1.5 53.5 105 -3.7826837877852 2.6 31.677169032739 461.67731355551
27	82723 2416 4 108 1.5 53.5 105 0.973 11.74790817499 452.44795758248 2956.5028048416
37	85139 2753 2 108 0.5 53.5 107 38253.837439753 38673.766319551 4121236.3585795 158736381692.35
38	87892 2749 2 108 0.5 53.5 107 12664.705058948 13102.250665116 1377781.1277425 17742866940.25
39	90641 2729 3 108 1 53.5 106 2.0987724464578 13.999149790469 1310.0297946414 17190.481274024
40	93370 2871 4 108 1.5 53.5 105 -3.4268637646646 2.6 23.633556595718 150.72908944839
41	96241 2633 4 108 1.5 53.5 105 0.973 8.4988474994894 290.28709256061 1154.1327245618
44	98874 2753 2 108 0.5 53.5 107 35241.419514399 35522.816474166 3784310.5990825 133841850576.91
45	101627 2751 2 108 0.5 53.5 107 14183.379204402 14486.608548723 1529732.33181 21871003601.715
46	104378 2728 3 108 1 53.5 106 2.0642169968456 11.998740537425 978.08706649163 10080.616868405
47	107106 2773 4 108 1.5 53.5 105 -3.3100718836039 2.6 19.769466797025 278.18258454574
48	109879 2501 4 108 1.5 53.5 105 0.973 7.6663502635902 290.88009400279 1169.167688995
51	112380 2703 4 108 1.5 53.5 105 34926.038652609 35157.425177829 3684418.3595698 129285602027.19
52	115083 2708 4 108 1.5 53.5 105 9716.8692989003 10031.037908433 1034701.3876536 10197157503.843
53	117791 2676 5 108 2 53.5 104 2.1090264054468 13.88857169559 927.48623318839 9692.099236163
54	120467 2674 6 108 2.5 53.5 103 -3.4331593295318 2.6 10.431348862205 407.96527478097
55	123141 2324 6 108 2.5 53.5 103 0.973 8.904345334363 325.00148415685 1551.6571460354
58	125465 2658 6 108 2.5 53.5 103 36215.936921746 36310.923439631 3737276.1868711 135604250248.95
59	128123 2656 6 108 2.5 53.5 103 9019.9665991783 9472.7648039658 949175.15172193 8749626964.0989
60	130779 2628 7 108 3 53.5 102 2.0807094166928 13.889881321082 1140.2265965283 14209.477293916
61	133407 2731 8 108 3.5 53.5 101 -3.3492059448752 2.6 5.7825288931471 183.28815655555
62	136138 2463 8 108 3.5 53.5 101 0.973 7.3679158204054 252.8247478742 866.70229408535
65	138601 2616 8 108 3.5 53.5 101 37923.91881816 38090.925747065 3838141.611526 145854994766.35
66	141217 2616 8 108 3.5 53.5 101 15441.415555079 15783.654119221 1573872.7274569 24526829818.776
67	143833 2578 9 108 4 53.5 100 2.0419750612395 13.889648214264 1128.8960938484 13951.157520597
68	146411 2679 10 108 4.5 53.5 99 -3.5716041803088 2.6 21.860832050904 243.23795050597
69	149090 2404 10 108 4.5 53.5 99 0.973 8.3642690265198 303.80589538315 1382.1294565474
72	151494 2564 10 108 4.5 53.5 99 40792.953313793 41042.3939756 4057202.5360243 166272186064.36
73	154058 2565 10 108 4.5 53.5 99 15080.787907197 15366.132637325 1510580.6084209 23049808145.802
74	156623 2537 11 108 5 53.5 98 2.0810691683101 13.885971797954 1129.7106423829 14227.843968242
75	159160 2632 12 108 5.5 53.5 97 -3.4717070257954 2.6 23.604571439048 184.26845105313
76	161792 2398 12 108 5.5 53.5 97 0.973 9.2677005562332 279.07628456164 1164.3527337822
79	164190 2509 12 108 5.5 53.5 97 38851.908325841 39087.408822847 3777579.895757 147115021919.81
80	166699 2506 12 108 5.5 53.5 97 10274.407049171 10621.538821823 1010181.7890434 10521685649.394
81	169205 2484 13 108 6 53.5 96 2.1407196742864 13.886576493548 992.17790887676 11529.80519393
82	171689 2532 14 108 6.5 53.5 95 -3.5092129604329 2.6 15.755996058641 320.48713077507
83	174221 2265 14 108 6.5 53.5 95 0.973 9.3186012679141 305.92204634837 1448.9853165423
86	176486 2464 14 108 6.5 53.5 95 39471.266717997 39733.290662065 3758777.2286919 148720642785.13
87	178950 2466 14 108 6.5 53.5 95 15996.978731305 16113.526807199 1524458.2347196 24462992755.328
88	181416 2430 15 108 7 53.5 94 2.183966260393 13.888950489629 957.05114473963 11143.332245199
89	183846 2478 16 108 7.5 53.5 93 -3.5720641088503 2.6 4.7453877860473 285.5058251223
90	186324 2185 16 108 7.5 53.5 93 0.973 9.3227560495905 273.33953754577 1220.9456440484
93	188509 2410 16 108 7.5 53.5 93 36903.942523246 37363.629580566 3449884.314295 127977590505.1
94	190919 2415 16 108 7.5 53.5 93 13643.469357912 13752.080625636 1273549.2130064 17440181731.128
95	193334 2385 17 108 8 53.5 92 2.0486385948827 13.889530423016 1046.454187631 13090.147771277
96	195719 2472 18 108 8.5 53.5 91 -3.4145640607039 2.6 8.7993058288071 181.02551546494
97	198191 2225 18 108 8.5 53.5 91 0.973 8.2252282079634 241.7643933424 923.267558861
100	200416 2451 18 108 8.5 53.5 91 38381.53702922 38754.404318825 3516521.8954252 135890144554.16
101	202867 2444 18 108 8.5 53.5 91 12987.668168114 13144.702426542 1190888.9926502 15585055155.293
102	205311 2421 19 108 9 53.5 90 2.1148980677065 22.219181981378 1067.6768933069 15981.3021096
103	207732 2435 20 108 9.5 53.5 89 -3.5338668264159 2.6 40.030712781216 346.41062037727
104	210167 2194 20 108 9.5 53.5 89 0.973 15.09779744129 400.57962889534 2703.0189186814
107	212361 2404 20 108 9.5 53.5 89 38108.656927379 38127.840129281 3392676.7984138 129328720772.56
108	214765 2407 20 108 9.5 53.5 89 12227.466051816 12927.917262257 1114643.0871997 13963670935.673
109	217172 2377 21 108 10 53.5 88 2.0339382766092 22.219767414548 1431.7480313503 27073.351011867
110	219549 2420 22 108 10.5 53.5 87 -3.8526197266286 2.6 40.127422151235 273.40544567089
111	221969 2232 22 108 10.5 53.5 87 0.973 13.384264133231 446.31659328972 3434.9946007006
114	224201 2343 22 108 10.5 53.5 87 36200.65 36316.208636124 3152611.4026026 114241007348.55
115	226544 2348 22 108 10.5 53.5 87 12100.801333666 12372.920095338 1063777.8440097 13008144016.302
116	228892 2324 23 108 11 53.5 86 2.0450285523663 22.214307698202 1028.1957249958 15130.249455367
117	231216 2315 24 108 11.5 53.5 85 -3.8975141369387 2.6 23.62367954819 382.3912570364
118	233531 2069 24 108 11.5 53.5 85 0.973 13.978299312462 384.19984071759 2663.626783422
121	235600 2296 24 108 11.5 53.5 85 35405.46633716 35517.237300489 3014686.4424145 106921678465.31
122	237896 2298 24 108 11.5 53.5 85 15368.92167671 15733.256156399 1321236.989475 20538310244.811
123	240194 2270 25 108 12 53.5 84 2.1413523124315 13.888096034226 870.0302652949 10166.282950248
124	242464 2296 26 108 12.5 53.5 83 -3.3652537960501 2.6 14.781027870279 251.49826531382
125	244760 2065 26 108 12.5 53.5 83 0.973 8.3797389628072 263.13476581563 1226.6867218809