file 11417320 1420335933                                        
version 2
run nodebug-0-20150103-21:40:19-13654
attr configname nodebug
attr datetime 20150103-21:40:19
attr experiment nodebug
attr inifile omnetpp.ini
attr iterationvars ""
attr iterationvars2 $repetition=0
attr measurement ""
attr network InfoBusScenario
attr processid 13654
attr repetition 0
attr replication #0
attr resultdir results
attr runnumber 0
attr seedset 0

vector 2  InfoBusScenario.node[0].veinsmobility  posx  ETV
vector 3  InfoBusScenario.node[0].veinsmobility  posy  ETV
vector 9  InfoBusScenario.node[1].veinsmobility  posx  ETV
vector 10  InfoBusScenario.node[1].veinsmobility  posy  ETV
vector 16  InfoBusScenario.node[2].veinsmobility  posx  ETV
vector 17  InfoBusScenario.node[2].veinsmobility  posy  ETV
vector 23  InfoBusScenario.node[3].veinsmobility  posx  ETV
vector 24  InfoBusScenario.node[3].veinsmobility  posy  ETV
vector 30  InfoBusScenario.node[4].veinsmobility  posx  ETV
vector 31  InfoBusScenario.node[4].veinsmobility  posy  ETV
vector 37  InfoBusScenario.node[5].veinsmobility  posx  ETV
vector 38  InfoBusScenario.node[5].veinsmobility  posy  ETV
vector 44  InfoBusScenario.node[6].veinsmobility  posx  ETV
vector 45  InfoBusScenario.node[6].veinsmobility  posy  ETV
vector 4  InfoBusScenario.node[0].veinsmobility  speed  ETV
vector 11  InfoBusScenario.node[1].veinsmobility  speed  ETV
vector 18  InfoBusScenario.node[2].veinsmobility  speed  ETV
vector 25  InfoBusScenario.node[3].veinsmobility  speed  ETV
vector 32  InfoBusScenario.node[4].veinsmobility  speed  ETV
vector 39  InfoBusScenario.node[5].veinsmobility  speed  ETV
vector 46  InfoBusScenario.node[6].veinsmobility  speed  ETV
vector 51  InfoBusScenario.node[7].veinsmobility  posx  ETV
vector 52  InfoBusScenario.node[7].veinsmobility  posy  ETV
vector 5  InfoBusScenario.node[0].veinsmobility  acceleration  ETV
vector 6  InfoBusScenario.node[0].veinsmobility  co2emission  ETV
vector 12  InfoBusScenario.node[1].veinsmobility  acceleration  ETV
vector 13  InfoBusScenario.node[1].veinsmobility  co2emission  ETV
vector 19  InfoBusScenario.node[2].veinsmobility  acceleration  ETV
vector 20  InfoBusScenario.node[2].veinsmobility  co2emission  ETV
vector 26  InfoBusScenario.node[3].veinsmobility  acceleration  ETV
vector 27  InfoBusScenario.node[3].veinsmobility  co2emission  ETV
vector 33  InfoBusScenario.node[4].veinsmobility  acceleration  ETV
vector 34  InfoBusScenario.node[4].veinsmobility  co2emission  ETV
vector 40  InfoBusScenario.node[5].veinsmobility  acceleration  ETV
vector 41  InfoBusScenario.node[5].veinsmobility  co2emission  ETV
vector 47  InfoBusScenario.node[6].veinsmobility  acceleration  ETV
vector 48  InfoBusScenario.node[6].veinsmobility  co2emission  ETV
vector 53  InfoBusScenario.node[7].veinsmobility  speed  ETV
vector 58  InfoBusScenario.node[8].veinsmobility  posx  ETV
vector 59  InfoBusScenario.node[8].veinsmobility  posy  ETV
vector 54  InfoBusScenario.node[7].veinsmobility  acceleration  ETV
vector 55  InfoBusScenario.node[7].veinsmobility  co2emission  ETV
vector 60  InfoBusScenario.node[8].veinsmobility  speed  ETV
vector 65  InfoBusScenario.node[9].veinsmobility  posx  ETV
vector 66  InfoBusScenario.node[9].veinsmobility  posy  ETV
vector 61  InfoBusScenario.node[8].veinsmobility  acceleration  ETV
vector 62  InfoBusScenario.node[8].veinsmobility  co2emission  ETV
vector 67  InfoBusScenario.node[9].veinsmobility  speed  ETV
vector 72  InfoBusScenario.node[10].veinsmobility  posx  ETV
vector 73  InfoBusScenario.node[10].veinsmobility  posy  ETV
vector 68  InfoBusScenario.node[9].veinsmobility  acceleration  ETV
vector 69  InfoBusScenario.node[9].veinsmobility  co2emission  ETV
vector 74  InfoBusScenario.node[10].veinsmobility  speed  ETV
vector 79  InfoBusScenario.node[11].veinsmobility  posx  ETV
vector 80  InfoBusScenario.node[11].veinsmobility  posy  ETV
vector 75  InfoBusScenario.node[10].veinsmobility  acceleration  ETV
vector 76  InfoBusScenario.node[10].veinsmobility  co2emission  ETV
vector 81  InfoBusScenario.node[11].veinsmobility  speed  ETV
vector 86  InfoBusScenario.node[12].veinsmobility  posx  ETV
vector 87  InfoBusScenario.node[12].veinsmobility  posy  ETV
vector 82  InfoBusScenario.node[11].veinsmobility  acceleration  ETV
vector 83  InfoBusScenario.node[11].veinsmobility  co2emission  ETV
vector 88  InfoBusScenario.node[12].veinsmobility  speed  ETV
vector 93  InfoBusScenario.node[13].veinsmobility  posx  ETV
vector 94  InfoBusScenario.node[13].veinsmobility  posy  ETV
vector 89  InfoBusScenario.node[12].veinsmobility  acceleration  ETV
vector 90  InfoBusScenario.node[12].veinsmobility  co2emission  ETV
vector 95  InfoBusScenario.node[13].veinsmobility  speed  ETV
vector 100  InfoBusScenario.node[14].veinsmobility  posx  ETV
vector 101  InfoBusScenario.node[14].veinsmobility  posy  ETV
vector 96  InfoBusScenario.node[13].veinsmobility  acceleration  ETV
vector 97  InfoBusScenario.node[13].veinsmobility  co2emission  ETV
vector 102  InfoBusScenario.node[14].veinsmobility  speed  ETV
vector 107  InfoBusScenario.node[15].veinsmobility  posx  ETV
vector 108  InfoBusScenario.node[15].veinsmobility  posy  ETV
vector 103  InfoBusScenario.node[14].veinsmobility  acceleration  ETV
vector 104  InfoBusScenario.node[14].veinsmobility  co2emission  ETV
vector 109  InfoBusScenario.node[15].veinsmobility  speed  ETV
vector 114  InfoBusScenario.node[16].veinsmobility  posx  ETV
vector 115  InfoBusScenario.node[16].veinsmobility  posy  ETV
vector 110  InfoBusScenario.node[15].veinsmobility  acceleration  ETV
vector 111  InfoBusScenario.node[15].veinsmobility  co2emission  ETV
vector 116  InfoBusScenario.node[16].veinsmobility  speed  ETV
vector 121  InfoBusScenario.node[17].veinsmobility  posx  ETV
vector 122  InfoBusScenario.node[17].veinsmobility  posy  ETV
vector 117  InfoBusScenario.node[16].veinsmobility  acceleration  ETV
vector 118  InfoBusScenario.node[16].veinsmobility  co2emission  ETV
vector 123  InfoBusScenario.node[17].veinsmobility  speed  ETV
vector 128  InfoBusScenario.node[18].veinsmobility  posx  ETV
vector 129  InfoBusScenario.node[18].veinsmobility  posy  ETV
vector 124  InfoBusScenario.node[17].veinsmobility  acceleration  ETV
vector 125  InfoBusScenario.node[17].veinsmobility  co2emission  ETV
vector 130  InfoBusScenario.node[18].veinsmobility  speed  ETV
vector 135  InfoBusScenario.node[19].veinsmobility  posx  ETV
vector 136  InfoBusScenario.node[19].veinsmobility  posy  ETV
vector 131  InfoBusScenario.node[18].veinsmobility  acceleration  ETV
vector 132  InfoBusScenario.node[18].veinsmobility  co2emission  ETV
vector 137  InfoBusScenario.node[19].veinsmobility  speed  ETV
vector 142  InfoBusScenario.node[20].veinsmobility  posx  ETV
vector 143  InfoBusScenario.node[20].veinsmobility  posy  ETV
vector 138  InfoBusScenario.node[19].veinsmobility  acceleration  ETV
vector 139  InfoBusScenario.node[19].veinsmobility  co2emission  ETV
vector 144  InfoBusScenario.node[20].veinsmobility  speed  ETV
vector 149  InfoBusScenario.node[21].veinsmobility  posx  ETV
vector 150  InfoBusScenario.node[21].veinsmobility  posy  ETV
vector 145  InfoBusScenario.node[20].veinsmobility  acceleration  ETV
vector 146  InfoBusScenario.node[20].veinsmobility  co2emission  ETV
vector 151  InfoBusScenario.node[21].veinsmobility  speed  ETV
vector 156  InfoBusScenario.node[22].veinsmobility  posx  ETV
vector 157  InfoBusScenario.node[22].veinsmobility  posy  ETV
vector 152  InfoBusScenario.node[21].veinsmobility  acceleration  ETV
vector 153  InfoBusScenario.node[21].veinsmobility  co2emission  ETV
vector 158  InfoBusScenario.node[22].veinsmobility  speed  ETV
vector 159  InfoBusScenario.node[22].veinsmobility  acceleration  ETV
vector 160  InfoBusScenario.node[22].veinsmobility  co2emission  ETV
vector 163  InfoBusScenario.node[23].veinsmobility  posx  ETV
vector 164  InfoBusScenario.node[23].veinsmobility  posy  ETV
vector 165  InfoBusScenario.node[23].veinsmobility  speed  ETV
vector 170  InfoBusScenario.node[24].veinsmobility  posx  ETV
vector 171  InfoBusScenario.node[24].veinsmobility  posy  ETV
vector 166  InfoBusScenario.node[23].veinsmobility  acceleration  ETV
vector 167  InfoBusScenario.node[23].veinsmobility  co2emission  ETV
vector 172  InfoBusScenario.node[24].veinsmobility  speed  ETV
vector 179  InfoBusScenario.node[25].veinsmobility  posx  ETV
vector 180  InfoBusScenario.node[25].veinsmobility  posy  ETV
vector 173  InfoBusScenario.node[24].veinsmobility  acceleration  ETV
vector 174  InfoBusScenario.node[24].veinsmobility  co2emission  ETV
vector 181  InfoBusScenario.node[25].veinsmobility  speed  ETV
vector 186  InfoBusScenario.node[26].veinsmobility  posx  ETV
vector 187  InfoBusScenario.node[26].veinsmobility  posy  ETV
vector 182  InfoBusScenario.node[25].veinsmobility  acceleration  ETV
vector 183  InfoBusScenario.node[25].veinsmobility  co2emission  ETV
vector 188  InfoBusScenario.node[26].veinsmobility  speed  ETV
vector 193  InfoBusScenario.node[27].veinsmobility  posx  ETV
vector 194  InfoBusScenario.node[27].veinsmobility  posy  ETV
vector 189  InfoBusScenario.node[26].veinsmobility  acceleration  ETV
vector 190  InfoBusScenario.node[26].veinsmobility  co2emission  ETV
vector 195  InfoBusScenario.node[27].veinsmobility  speed  ETV
vector 200  InfoBusScenario.node[28].veinsmobility  posx  ETV
vector 201  InfoBusScenario.node[28].veinsmobility  posy  ETV
vector 196  InfoBusScenario.node[27].veinsmobility  acceleration  ETV
vector 197  InfoBusScenario.node[27].veinsmobility  co2emission  ETV
vector 202  InfoBusScenario.node[28].veinsmobility  speed  ETV
vector 207  InfoBusScenario.node[29].veinsmobility  posx  ETV
vector 208  InfoBusScenario.node[29].veinsmobility  posy  ETV
vector 203  InfoBusScenario.node[28].veinsmobility  acceleration  ETV
vector 204  InfoBusScenario.node[28].veinsmobility  co2emission  ETV
vector 209  InfoBusScenario.node[29].veinsmobility  speed  ETV
vector 214  InfoBusScenario.node[30].veinsmobility  posx  ETV
vector 215  InfoBusScenario.node[30].veinsmobility  posy  ETV
vector 221  InfoBusScenario.node[31].veinsmobility  posx  ETV
vector 222  InfoBusScenario.node[31].veinsmobility  posy  ETV
vector 210  InfoBusScenario.node[29].veinsmobility  acceleration  ETV
vector 211  InfoBusScenario.node[29].veinsmobility  co2emission  ETV
vector 216  InfoBusScenario.node[30].veinsmobility  speed  ETV
vector 223  InfoBusScenario.node[31].veinsmobility  speed  ETV
vector 228  InfoBusScenario.node[32].veinsmobility  posx  ETV
vector 229  InfoBusScenario.node[32].veinsmobility  posy  ETV
vector 217  InfoBusScenario.node[30].veinsmobility  acceleration  ETV
vector 218  InfoBusScenario.node[30].veinsmobility  co2emission  ETV
vector 224  InfoBusScenario.node[31].veinsmobility  acceleration  ETV
vector 225  InfoBusScenario.node[31].veinsmobility  co2emission  ETV
vector 230  InfoBusScenario.node[32].veinsmobility  speed  ETV
vector 235  InfoBusScenario.node[33].veinsmobility  posx  ETV
vector 236  InfoBusScenario.node[33].veinsmobility  posy  ETV
vector 231  InfoBusScenario.node[32].veinsmobility  acceleration  ETV
vector 232  InfoBusScenario.node[32].veinsmobility  co2emission  ETV
vector 237  InfoBusScenario.node[33].veinsmobility  speed  ETV
vector 242  InfoBusScenario.node[34].veinsmobility  posx  ETV
vector 243  InfoBusScenario.node[34].veinsmobility  posy  ETV
vector 238  InfoBusScenario.node[33].veinsmobility  acceleration  ETV
vector 239  InfoBusScenario.node[33].veinsmobility  co2emission  ETV
vector 244  InfoBusScenario.node[34].veinsmobility  speed  ETV
vector 249  InfoBusScenario.node[35].veinsmobility  posx  ETV
vector 250  InfoBusScenario.node[35].veinsmobility  posy  ETV
vector 245  InfoBusScenario.node[34].veinsmobility  acceleration  ETV
vector 246  InfoBusScenario.node[34].veinsmobility  co2emission  ETV
vector 251  InfoBusScenario.node[35].veinsmobility  speed  ETV
vector 256  InfoBusScenario.node[36].veinsmobility  posx  ETV
vector 257  InfoBusScenario.node[36].veinsmobility  posy  ETV
vector 252  InfoBusScenario.node[35].veinsmobility  acceleration  ETV
vector 253  InfoBusScenario.node[35].veinsmobility  co2emission  ETV
vector 258  InfoBusScenario.node[36].veinsmobility  speed  ETV
vector 263  InfoBusScenario.node[37].veinsmobility  posx  ETV
vector 264  InfoBusScenario.node[37].veinsmobility  posy  ETV
vector 259  InfoBusScenario.node[36].veinsmobility  acceleration  ETV
vector 260  InfoBusScenario.node[36].veinsmobility  co2emission  ETV
vector 265  InfoBusScenario.node[37].veinsmobility  speed  ETV
vector 270  InfoBusScenario.node[38].veinsmobility  posx  ETV
vector 271  InfoBusScenario.node[38].veinsmobility  posy  ETV
vector 266  InfoBusScenario.node[37].veinsmobility  acceleration  ETV
vector 267  InfoBusScenario.node[37].veinsmobility  co2emission  ETV
vector 272  InfoBusScenario.node[38].veinsmobility  speed  ETV
vector 277  InfoBusScenario.node[39].veinsmobility  posx  ETV
vector 278  InfoBusScenario.node[39].veinsmobility  posy  ETV
vector 273  InfoBusScenario.node[38].veinsmobility  acceleration  ETV
vector 274  InfoBusScenario.node[38].veinsmobility  co2emission  ETV
vector 279  InfoBusScenario.node[39].veinsmobility  speed  ETV
vector 284  InfoBusScenario.node[40].veinsmobility  posx  ETV
vector 285  InfoBusScenario.node[40].veinsmobility  posy  ETV
vector 280  InfoBusScenario.node[39].veinsmobility  acceleration  ETV
vector 281  InfoBusScenario.node[39].veinsmobility  co2emission  ETV
vector 286  InfoBusScenario.node[40].veinsmobility  speed  ETV
vector 291  InfoBusScenario.node[41].veinsmobility  posx  ETV
vector 292  InfoBusScenario.node[41].veinsmobility  posy  ETV
vector 287  InfoBusScenario.node[40].veinsmobility  acceleration  ETV
vector 288  InfoBusScenario.node[40].veinsmobility  co2emission  ETV
vector 293  InfoBusScenario.node[41].veinsmobility  speed  ETV
vector 298  InfoBusScenario.node[42].veinsmobility  posx  ETV
vector 299  InfoBusScenario.node[42].veinsmobility  posy  ETV
vector 294  InfoBusScenario.node[41].veinsmobility  acceleration  ETV
vector 295  InfoBusScenario.node[41].veinsmobility  co2emission  ETV
vector 300  InfoBusScenario.node[42].veinsmobility  speed  ETV
vector 305  InfoBusScenario.node[43].veinsmobility  posx  ETV
vector 306  InfoBusScenario.node[43].veinsmobility  posy  ETV
vector 301  InfoBusScenario.node[42].veinsmobility  acceleration  ETV
vector 302  InfoBusScenario.node[42].veinsmobility  co2emission  ETV
vector 307  InfoBusScenario.node[43].veinsmobility  speed  ETV
vector 312  InfoBusScenario.node[44].veinsmobility  posx  ETV
vector 313  InfoBusScenario.node[44].veinsmobility  posy  ETV
vector 308  InfoBusScenario.node[43].veinsmobility  acceleration  ETV
vector 309  InfoBusScenario.node[43].veinsmobility  co2emission  ETV
vector 314  InfoBusScenario.node[44].veinsmobility  speed  ETV
34	14778 1788 4 511 1.5 39 76 0.973 8.8053478148037 231.15948982328 1079.6298668607
33	16566 2030 4 511 1.5 39 76 -3.4770010142619 2.6 10.002672297905 251.90013344785
32	18596 2012 3 511 1 39 77 1.9984376355134 13.877150025701 741.86560252056 8359.7840663053
31	20608 2039 2 511 0.5 39 78 14240.099513617 14424.793151468 1117852.6601688 16020785526.313
30	22647 2036 2 511 0.5 39 78 37048.077865304 37316.981337699 2898410.9994443 107702937205.21
vector 319  InfoBusScenario.node[45].veinsmobility  posx  ETV
vector 320  InfoBusScenario.node[45].veinsmobility  posy  ETV
vector 326  InfoBusScenario.node[46].veinsmobility  posx  ETV
vector 327  InfoBusScenario.node[46].veinsmobility  posy  ETV
vector 315  InfoBusScenario.node[44].veinsmobility  acceleration  ETV
vector 316  InfoBusScenario.node[44].veinsmobility  co2emission  ETV
vector 328  InfoBusScenario.node[46].veinsmobility  speed  ETV
vector 321  InfoBusScenario.node[45].veinsmobility  speed  ETV
vector 333  InfoBusScenario.node[47].veinsmobility  posx  ETV
vector 334  InfoBusScenario.node[47].veinsmobility  posy  ETV
vector 329  InfoBusScenario.node[46].veinsmobility  acceleration  ETV
vector 330  InfoBusScenario.node[46].veinsmobility  co2emission  ETV
vector 322  InfoBusScenario.node[45].veinsmobility  acceleration  ETV
vector 323  InfoBusScenario.node[45].veinsmobility  co2emission  ETV
vector 335  InfoBusScenario.node[47].veinsmobility  speed  ETV
vector 340  InfoBusScenario.node[48].veinsmobility  posx  ETV
vector 341  InfoBusScenario.node[48].veinsmobility  posy  ETV
vector 336  InfoBusScenario.node[47].veinsmobility  acceleration  ETV
vector 337  InfoBusScenario.node[47].veinsmobility  co2emission  ETV
vector 342  InfoBusScenario.node[48].veinsmobility  speed  ETV
vector 347  InfoBusScenario.node[49].veinsmobility  posx  ETV
vector 348  InfoBusScenario.node[49].veinsmobility  posy  ETV
vector 343  InfoBusScenario.node[48].veinsmobility  acceleration  ETV
vector 344  InfoBusScenario.node[48].veinsmobility  co2emission  ETV
vector 349  InfoBusScenario.node[49].veinsmobility  speed  ETV
vector 354  InfoBusScenario.node[50].veinsmobility  posx  ETV
vector 355  InfoBusScenario.node[50].veinsmobility  posy  ETV
vector 350  InfoBusScenario.node[49].veinsmobility  acceleration  ETV
vector 351  InfoBusScenario.node[49].veinsmobility  co2emission  ETV
vector 356  InfoBusScenario.node[50].veinsmobility  speed  ETV
vector 361  InfoBusScenario.node[51].veinsmobility  posx  ETV
vector 362  InfoBusScenario.node[51].veinsmobility  posy  ETV
vector 357  InfoBusScenario.node[50].veinsmobility  acceleration  ETV
vector 358  InfoBusScenario.node[50].veinsmobility  co2emission  ETV
vector 363  InfoBusScenario.node[51].veinsmobility  speed  ETV
vector 368  InfoBusScenario.node[52].veinsmobility  posx  ETV
vector 369  InfoBusScenario.node[52].veinsmobility  posy  ETV
vector 375  InfoBusScenario.node[53].veinsmobility  posx  ETV
vector 376  InfoBusScenario.node[53].veinsmobility  posy  ETV
vector 382  InfoBusScenario.node[54].veinsmobility  posx  ETV
vector 383  InfoBusScenario.node[54].veinsmobility  posy  ETV
vector 389  InfoBusScenario.node[55].veinsmobility  posx  ETV
vector 390  InfoBusScenario.node[55].veinsmobility  posy  ETV
vector 364  InfoBusScenario.node[51].veinsmobility  acceleration  ETV
vector 365  InfoBusScenario.node[51].veinsmobility  co2emission  ETV
vector 370  InfoBusScenario.node[52].veinsmobility  speed  ETV
vector 377  InfoBusScenario.node[53].veinsmobility  speed  ETV
vector 384  InfoBusScenario.node[54].veinsmobility  speed  ETV
vector 391  InfoBusScenario.node[55].veinsmobility  speed  ETV
vector 396  InfoBusScenario.node[56].veinsmobility  posx  ETV
vector 397  InfoBusScenario.node[56].veinsmobility  posy  ETV
vector 371  InfoBusScenario.node[52].veinsmobility  acceleration  ETV
vector 372  InfoBusScenario.node[52].veinsmobility  co2emission  ETV
vector 378  InfoBusScenario.node[53].veinsmobility  acceleration  ETV
vector 379  InfoBusScenario.node[53].veinsmobility  co2emission  ETV
vector 385  InfoBusScenario.node[54].veinsmobility  acceleration  ETV
vector 386  InfoBusScenario.node[54].veinsmobility  co2emission  ETV
vector 392  InfoBusScenario.node[55].veinsmobility  acceleration  ETV
vector 393  InfoBusScenario.node[55].veinsmobility  co2emission  ETV
vector 398  InfoBusScenario.node[56].veinsmobility  speed  ETV
vector 403  InfoBusScenario.node[57].veinsmobility  posx  ETV
vector 404  InfoBusScenario.node[57].veinsmobility  posy  ETV
vector 399  InfoBusScenario.node[56].veinsmobility  acceleration  ETV
vector 400  InfoBusScenario.node[56].veinsmobility  co2emission  ETV
vector 405  InfoBusScenario.node[57].veinsmobility  speed  ETV
vector 410  InfoBusScenario.node[58].veinsmobility  posx  ETV
vector 411  InfoBusScenario.node[58].veinsmobility  posy  ETV
vector 406  InfoBusScenario.node[57].veinsmobility  acceleration  ETV
vector 407  InfoBusScenario.node[57].veinsmobility  co2emission  ETV
vector 412  InfoBusScenario.node[58].veinsmobility  speed  ETV
vector 417  InfoBusScenario.node[59].veinsmobility  posx  ETV
vector 418  InfoBusScenario.node[59].veinsmobility  posy  ETV
vector 413  InfoBusScenario.node[58].veinsmobility  acceleration  ETV
vector 414  InfoBusScenario.node[58].veinsmobility  co2emission  ETV
vector 419  InfoBusScenario.node[59].veinsmobility  speed  ETV
vector 424  InfoBusScenario.node[60].veinsmobility  posx  ETV
vector 425  InfoBusScenario.node[60].veinsmobility  posy  ETV
vector 431  InfoBusScenario.node[61].veinsmobility  posx  ETV
vector 432  InfoBusScenario.node[61].veinsmobility  posy  ETV
vector 438  InfoBusScenario.node[62].veinsmobility  posx  ETV
vector 439  InfoBusScenario.node[62].veinsmobility  posy  ETV
vector 420  InfoBusScenario.node[59].veinsmobility  acceleration  ETV
vector 421  InfoBusScenario.node[59].veinsmobility  co2emission  ETV
vector 426  InfoBusScenario.node[60].veinsmobility  speed  ETV
vector 433  InfoBusScenario.node[61].veinsmobility  speed  ETV
vector 440  InfoBusScenario.node[62].veinsmobility  speed  ETV
vector 445  InfoBusScenario.node[63].veinsmobility  posx  ETV
vector 446  InfoBusScenario.node[63].veinsmobility  posy  ETV
vector 427  InfoBusScenario.node[60].veinsmobility  acceleration  ETV
vector 428  InfoBusScenario.node[60].veinsmobility  co2emission  ETV
vector 434  InfoBusScenario.node[61].veinsmobility  acceleration  ETV
vector 435  InfoBusScenario.node[61].veinsmobility  co2emission  ETV
vector 441  InfoBusScenario.node[62].veinsmobility  acceleration  ETV
vector 442  InfoBusScenario.node[62].veinsmobility  co2emission  ETV
vector 447  InfoBusScenario.node[63].veinsmobility  speed  ETV
vector 452  InfoBusScenario.node[64].veinsmobility  posx  ETV
vector 453  InfoBusScenario.node[64].veinsmobility  posy  ETV
vector 448  InfoBusScenario.node[63].veinsmobility  acceleration  ETV
vector 449  InfoBusScenario.node[63].veinsmobility  co2emission  ETV
vector 454  InfoBusScenario.node[64].veinsmobility  speed  ETV
vector 459  InfoBusScenario.node[65].veinsmobility  posx  ETV
vector 460  InfoBusScenario.node[65].veinsmobility  posy  ETV
vector 455  InfoBusScenario.node[64].veinsmobility  acceleration  ETV
vector 456  InfoBusScenario.node[64].veinsmobility  co2emission  ETV
vector 461  InfoBusScenario.node[65].veinsmobility  speed  ETV
vector 466  InfoBusScenario.node[66].veinsmobility  posx  ETV
vector 467  InfoBusScenario.node[66].veinsmobility  posy  ETV
vector 462  InfoBusScenario.node[65].veinsmobility  acceleration  ETV
vector 463  InfoBusScenario.node[65].veinsmobility  co2emission  ETV
vector 468  InfoBusScenario.node[66].veinsmobility  speed  ETV
vector 473  InfoBusScenario.node[67].veinsmobility  posx  ETV
vector 474  InfoBusScenario.node[67].veinsmobility  posy  ETV
vector 469  InfoBusScenario.node[66].veinsmobility  acceleration  ETV
vector 470  InfoBusScenario.node[66].veinsmobility  co2emission  ETV
vector 475  InfoBusScenario.node[67].veinsmobility  speed  ETV
vector 480  InfoBusScenario.node[68].veinsmobility  posx  ETV
vector 481  InfoBusScenario.node[68].veinsmobility  posy  ETV
vector 476  InfoBusScenario.node[67].veinsmobility  acceleration  ETV
vector 477  InfoBusScenario.node[67].veinsmobility  co2emission  ETV
vector 482  InfoBusScenario.node[68].veinsmobility  speed  ETV
vector 487  InfoBusScenario.node[69].veinsmobility  posx  ETV
vector 488  InfoBusScenario.node[69].veinsmobility  posy  ETV
vector 483  InfoBusScenario.node[68].veinsmobility  acceleration  ETV
vector 484  InfoBusScenario.node[68].veinsmobility  co2emission  ETV
vector 489  InfoBusScenario.node[69].veinsmobility  speed  ETV
vector 494  InfoBusScenario.node[70].veinsmobility  posx  ETV
vector 495  InfoBusScenario.node[70].veinsmobility  posy  ETV
vector 490  InfoBusScenario.node[69].veinsmobility  acceleration  ETV
vector 491  InfoBusScenario.node[69].veinsmobility  co2emission  ETV
428	33096 378 893 1219 51.5 58.5 15 0.973 5.6095539847686 48.675178769609 204.36215146533
427	33474 422 893 1219 51.5 58.5 15 -2.8188913700027 2.6 10.07828737947 70.723335219032
426	33896 456 892 1219 51 58.5 16 2.0261679768365 8.8627628990673 91.886035621613 587.91787297583
425	34352 483 882 1219 50.5 58.5 17 8376.8835193821 8391.1791590808 142506.72200224 1194598411.9804
424	34835 484 882 1219 50.5 58.5 17 35390.746040457 35428.768984502 601922.31944026 21312384167.266
vector 496  InfoBusScenario.node[70].veinsmobility  speed  ETV
vector 501  InfoBusScenario.node[71].veinsmobility  posx  ETV
vector 502  InfoBusScenario.node[71].veinsmobility  posy  ETV
vector 497  InfoBusScenario.node[70].veinsmobility  acceleration  ETV
vector 498  InfoBusScenario.node[70].veinsmobility  co2emission  ETV
vector 503  InfoBusScenario.node[71].veinsmobility  speed  ETV
vector 508  InfoBusScenario.node[72].veinsmobility  posx  ETV
vector 509  InfoBusScenario.node[72].veinsmobility  posy  ETV
vector 504  InfoBusScenario.node[71].veinsmobility  acceleration  ETV
vector 505  InfoBusScenario.node[71].veinsmobility  co2emission  ETV
vector 510  InfoBusScenario.node[72].veinsmobility  speed  ETV
vector 515  InfoBusScenario.node[73].veinsmobility  posx  ETV
vector 516  InfoBusScenario.node[73].veinsmobility  posy  ETV
vector 511  InfoBusScenario.node[72].veinsmobility  acceleration  ETV
vector 512  InfoBusScenario.node[72].veinsmobility  co2emission  ETV
vector 517  InfoBusScenario.node[73].veinsmobility  speed  ETV
vector 522  InfoBusScenario.node[74].veinsmobility  posx  ETV
vector 523  InfoBusScenario.node[74].veinsmobility  posy  ETV
vector 518  InfoBusScenario.node[73].veinsmobility  acceleration  ETV
vector 519  InfoBusScenario.node[73].veinsmobility  co2emission  ETV
vector 524  InfoBusScenario.node[74].veinsmobility  speed  ETV
vector 529  InfoBusScenario.node[75].veinsmobility  posx  ETV
vector 530  InfoBusScenario.node[75].veinsmobility  posy  ETV
vector 525  InfoBusScenario.node[74].veinsmobility  acceleration  ETV
vector 526  InfoBusScenario.node[74].veinsmobility  co2emission  ETV
vector 531  InfoBusScenario.node[75].veinsmobility  speed  ETV
vector 536  InfoBusScenario.node[76].veinsmobility  posx  ETV
vector 537  InfoBusScenario.node[76].veinsmobility  posy  ETV
vector 532  InfoBusScenario.node[75].veinsmobility  acceleration  ETV
vector 533  InfoBusScenario.node[75].veinsmobility  co2emission  ETV
vector 538  InfoBusScenario.node[76].veinsmobility  speed  ETV
vector 543  InfoBusScenario.node[77].veinsmobility  posx  ETV
vector 544  InfoBusScenario.node[77].veinsmobility  posy  ETV
vector 539  InfoBusScenario.node[76].veinsmobility  acceleration  ETV
vector 540  InfoBusScenario.node[76].veinsmobility  co2emission  ETV
vector 545  InfoBusScenario.node[77].veinsmobility  speed  ETV
vector 550  InfoBusScenario.node[78].veinsmobility  posx  ETV
vector 551  InfoBusScenario.node[78].veinsmobility  posy  ETV
vector 546  InfoBusScenario.node[77].veinsmobility  acceleration  ETV
vector 547  InfoBusScenario.node[77].veinsmobility  co2emission  ETV
vector 552  InfoBusScenario.node[78].veinsmobility  speed  ETV
vector 557  InfoBusScenario.node[79].veinsmobility  posx  ETV
vector 558  InfoBusScenario.node[79].veinsmobility  posy  ETV
vector 553  InfoBusScenario.node[78].veinsmobility  acceleration  ETV
vector 554  InfoBusScenario.node[78].veinsmobility  co2emission  ETV
vector 559  InfoBusScenario.node[79].veinsmobility  speed  ETV
vector 564  InfoBusScenario.node[80].veinsmobility  posx  ETV
vector 565  InfoBusScenario.node[80].veinsmobility  posy  ETV
vector 560  InfoBusScenario.node[79].veinsmobility  acceleration  ETV
vector 561  InfoBusScenario.node[79].veinsmobility  co2emission  ETV
vector 566  InfoBusScenario.node[80].veinsmobility  speed  ETV
vector 571  InfoBusScenario.node[81].veinsmobility  posx  ETV
vector 572  InfoBusScenario.node[81].veinsmobility  posy  ETV
vector 567  InfoBusScenario.node[80].veinsmobility  acceleration  ETV
vector 568  InfoBusScenario.node[80].veinsmobility  co2emission  ETV
vector 573  InfoBusScenario.node[81].veinsmobility  speed  ETV
vector 578  InfoBusScenario.node[82].veinsmobility  posx  ETV
vector 579  InfoBusScenario.node[82].veinsmobility  posy  ETV
vector 574  InfoBusScenario.node[81].veinsmobility  acceleration  ETV
vector 575  InfoBusScenario.node[81].veinsmobility  co2emission  ETV
vector 580  InfoBusScenario.node[82].veinsmobility  speed  ETV
vector 585  InfoBusScenario.node[83].veinsmobility  posx  ETV
vector 586  InfoBusScenario.node[83].veinsmobility  posy  ETV
vector 581  InfoBusScenario.node[82].veinsmobility  acceleration  ETV
vector 582  InfoBusScenario.node[82].veinsmobility  co2emission  ETV
vector 587  InfoBusScenario.node[83].veinsmobility  speed  ETV
vector 592  InfoBusScenario.node[84].veinsmobility  posx  ETV
vector 593  InfoBusScenario.node[84].veinsmobility  posy  ETV
vector 588  InfoBusScenario.node[83].veinsmobility  acceleration  ETV
vector 589  InfoBusScenario.node[83].veinsmobility  co2emission  ETV
vector 594  InfoBusScenario.node[84].veinsmobility  speed  ETV
vector 599  InfoBusScenario.node[85].veinsmobility  posx  ETV
vector 600  InfoBusScenario.node[85].veinsmobility  posy  ETV
vector 595  InfoBusScenario.node[84].veinsmobility  acceleration  ETV
vector 596  InfoBusScenario.node[84].veinsmobility  co2emission  ETV
vector 601  InfoBusScenario.node[85].veinsmobility  speed  ETV
vector 606  InfoBusScenario.node[86].veinsmobility  posx  ETV
vector 607  InfoBusScenario.node[86].veinsmobility  posy  ETV
vector 602  InfoBusScenario.node[85].veinsmobility  acceleration  ETV
vector 603  InfoBusScenario.node[85].veinsmobility  co2emission  ETV
vector 608  InfoBusScenario.node[86].veinsmobility  speed  ETV
vector 613  InfoBusScenario.node[87].veinsmobility  posx  ETV
vector 614  InfoBusScenario.node[87].veinsmobility  posy  ETV
vector 620  InfoBusScenario.node[88].veinsmobility  posx  ETV
vector 621  InfoBusScenario.node[88].veinsmobility  posy  ETV
vector 609  InfoBusScenario.node[86].veinsmobility  acceleration  ETV
vector 610  InfoBusScenario.node[86].veinsmobility  co2emission  ETV
vector 615  InfoBusScenario.node[87].veinsmobility  speed  ETV
vector 622  InfoBusScenario.node[88].veinsmobility  speed  ETV