version 2
run debug-0-20141114-10:47:31-4867
attr configname debug
attr datetime 20141114-10:47:31
attr experiment debug
attr inifile omnetpp.ini
attr iterationvars ""
attr iterationvars2 $repetition=0
attr measurement ""
attr network RSUExampleScenario
attr processid 4867
attr repetition 0
attr replication #0
attr resultdir results
attr runnumber 0
attr seedset 0

vector 4  RSUExampleScenario.node[0].veinsmobility  posx  ETV
vector 5  RSUExampleScenario.node[0].veinsmobility  posy  ETV
vector 6  RSUExampleScenario.node[0].veinsmobility  speed  ETV
vector 7  RSUExampleScenario.node[0].veinsmobility  acceleration  ETV
vector 8  RSUExampleScenario.node[0].veinsmobility  co2emission  ETV
vector 11  RSUExampleScenario.node[1].veinsmobility  posx  ETV
vector 12  RSUExampleScenario.node[1].veinsmobility  posy  ETV
vector 13  RSUExampleScenario.node[1].veinsmobility  speed  ETV
vector 14  RSUExampleScenario.node[1].veinsmobility  acceleration  ETV
vector 15  RSUExampleScenario.node[1].veinsmobility  co2emission  ETV
8	4	0.3	1.4276208928798
8	5	0.4	1.5553504369406
8	6	0.5	1.6547258140606
8	7	0.6	1.7983555805977
8	8	0.7	1.8323674505787
8	9	0.8	2.0110897446338
8	10	0.9	1.970451684244
8	11	1	2.244901373431
8	12	1.1	2.2119208452933
8	13	1.2	2.2548819012347
8	14	1.3	2.5345448660167
8	15	1.4	2.6013847819414
8	16	1.5	2.852151772081
8	17	1.6	2.3526342216865
8	18	1.7	3.339605186172
8	19	1.8	2.4276646371033
8	20	1.9	3.3234379637286
8	21	2	3.3108190720898
8	22	2.1	3.2988402737822
8	23	2.2	2.9578171889378
8	24	2.3	2.9959376211745
8	25	2.4	3.4908200907348
8	26	2.5	3.6670806850063
8	27	2.6	3.6268696198063
8	28	2.7	4.0205201967415
8	29	2.8	3.1988957479633
8	30	2.9	3.4137976506977
8	31	3	4.907912272511
8	32	3.1	4.5496391886597
8	33	3.2	5.1843707050129
8	34	3.3	5.490502883119
8	35	3.4	3.8970556575359
8	36	3.5	4.0812734992789
8	37	3.6	3.9458891055838
8	38	3.7	3.7593760917064
8	39	3.8	4.2273339749307
8	40	3.9	5.1045553963918
8	41	4	4.4294934204996
8	42	4.1	6.1704815888201
8	43	4.2	4.9722185416067
8	44	4.3	6.3796667209292
8	45	4.4	4.3550328563445
8	46	4.5	5.5724689565354
8	47	4.6	5.9783016536976
8	48	4.7	6.531517038645
8	49	4.8	5.1600288586713
8	50	4.9	6.1886912441601
8	51	5	5.9549957283831
8	52	5.1	7.7853608744789
8	53	5.2	6.0293065596097
8	54	5.3	6.1389862136434
8	55	5.4	6.215380184048
8	56	5.5	5.2080809029875
8	57	5.6	6.1561018361202
8	58	5.7	7.3629412347938
8	59	5.8	7.2141082079045
8	60	5.9	6.3899916329279
7	4	0.3	2.4479752470855
7	5	0.4	2.3290637582572
7	6	0.5	2.1818481258762
7	7	0.6	2.2357036410334
7	8	0.7	1.9855717337837
7	9	0.8	2.1556800054752
7	10	0.9	1.8177961522857
7	11	1	2.1703654659723
7	12	1.1	1.8999668675033
7	13	1.2	1.8135391334582
7	14	1.3	2.1003037793096
7	15	1.4	2.0311366270296
7	16	1.5	2.213205013168
7	17	1.6	1.4406950977165
7	18	1.7	2.5262731315568
7	19	1.8	1.3472384067252
7	20	1.9	2.2455468171276
7	21	2	2.1015260222834
7	22	2.1	1.979035354848
7	23	2.2	1.5707574565429
7	24	2.3	1.5441806555958
7	25	2.4	1.9124366020085
7	26	2.5	1.9760296771768
7	27	2.6	1.861542067118
7	28	2.7	2.0893797688885
7	29	2.8	1.3967243768042
7	30	2.9	1.5130976005224
7	31	3	2.5076531236758
7	32	3.1	2.16138498988
7	33	3.2	2.4867319139419
7	34	3.3	2.5737160811434
7	35	3.4	1.5175942043075
7	36	3.5	1.5883962160442
7	37	3.6	1.4689842111664
7	38	3.7	1.3277961542364
7	39	3.8	1.5610938670114
7	40	3.9	2.0000768283615
7	41	4	1.5853120716521
7	42	4.1	2.4462432491127
7	43	4.2	1.7681026779115
7	44	4.3	2.413640728849
7	45	4.4	1.3719304058002
7	46	4.5	1.9215971733676
7	47	4.6	2.0609394765459
7	48	4.7	2.2560777051607
7	49	4.8	1.5934962075436
7	50	4.9	2.0070045632543
7	51	5	1.8610358671751
7	52	5.1	2.5755732625723
7	53	5.2	1.7970738488948
7	54	5.3	1.8042755607981
7	55	5.4	1.7979858017527
7	56	5.5	1.3731275021331
7	57	5.6	1.7136336127995
7	58	5.7	2.1326397273224
7	59	5.8	2.0318584615365
7	60	5.9	1.6930794459535
6	3	0.2	0.25286542447004
6	4	0.3	0.49766294917859
6	5	0.4	0.73056932500431
6	6	0.5	0.94875413759194
6	7	0.6	1.1723245016953
6	8	0.7	1.3708816750736
6	9	0.8	1.5864496756212
6	10	0.9	1.7682292908497
6	11	1	1.985265837447
6	12	1.1	2.1752625241973
6	13	1.2	2.3566164375431
6	14	1.3	2.5666468154741
6	15	1.4	2.769760478177
6	16	1.5	2.9910809794938
6	17	1.6	3.1351504892655
6	18	1.7	3.3877778024212
6	19	1.8	3.5225016430937
6	20	1.9	3.7470563248065
6	21	2	3.9572089270348
6	22	2.1	4.1551124625196
6	23	2.2	4.3121882081739
6	24	2.3	4.4666062737335
6	25	2.4	4.6578499339343
6	26	2.5	4.855452901652
6	27	2.6	5.0416071083638
6	28	2.7	5.2505450852527
6	29	2.8	5.3902175229331
6	30	2.9	5.5415272829853
6	31	3	5.7922925953529
6	32	3.1	6.0084310943409
6	33	3.2	6.2571042857351
6	34	3.3	6.5144758938494
6	35	3.4	6.6662353142802
6	36	3.5	6.8250749358846
6	37	3.6	6.9719733570013
6	38	3.7	7.1047529724249
6	39	3.8	7.260862359126
6	40	3.9	7.4608700419622
6	41	4	7.6194012491274
6	42	4.1	7.8640255740387
6	43	4.2	8.0408358418298
6	44	4.3	8.2821999147147
6	45	4.4	8.4193929552947
6	46	4.5	8.6115526726315
6	47	4.6	8.8176466202861
6	48	4.7	9.0432543908022
6	49	4.8	9.2026040115565
6	50	4.9	9.403304467882
6	51	5	9.5894080545995
6	52	5.1	9.8469653808567
6	53	5.2	10.026672765746
6	54	5.3	10.207100321826
6	55	5.4	10.386898902001
6	56	5.5	10.524211652215
6	57	5.6	10.695575013495
6	58	5.7	10.908838986227
6	59	5.8	11.11202483238
6	60	5.9	11.281332776976
5	2	0.1	1578.0861504339
5	3	0.2	1578.0861504339
5	4	0.3	1578.0948660281
5	5	0.4	1578.1120191384
5	6	0.5	1578.1371999085
5	7	0.6	1578.1699009249
5	8	0.7	1578.2103078142
5	9	0.8	1578.2575584371
5	10	0.9	1578.3122391133
5	11	1	1578.3731852453
5	12	1.1	1578.4416120471
5	13	1.2	1578.5165875256
5	14	1.3	1578.5978137888
5	15	1.4	1578.6862792373
5	16	1.5	1578.7817454701
5	17	1.6	1578.8848400284
5	18	1.7	1578.9929002775
5	19	1.8	1579.109667914
5	20	1.9	1579.2310791202
5	21	2	1579.3602301264
5	22	2.1	1579.4966245294
5	23	2.2	1579.6398401391
5	24	2.3	1579.7884697281
5	25	2.4	1579.9424216952
5	26	2.5	1580.1029653195
5	27	2.6	1580.2703197896
5	28	2.7	1580.4440904977
5	29	2.8	1580.6250627376
5	30	2.9	1580.8108491134
5	31	3	1581.0018507317
5	32	3.1	1581.2776015159
5	33	3.2	1581.7051451085
5	34	3.3	1582.1503836084
5	35	3.4	1582.6139359707
5	36	3.5	1583.0882871207
5	37	3.6	1583.5739408657
5	38	3.7	1584.0700475015
5	39	3.8	1584.5756023731
5	40	3.9	1585.092265564
5	41	4	1585.6231607571
5	42	4.1	1586.1653365986
5	43	4.2	1586.7249192409
5	44	4.3	1587.2970832204
5	45	4.4	1587.8864220101
5	46	4.5	1588.4855230832
5	47	4.6	1589.098297718
5	48	4.7	1589.7257374367
5	49	4.8	1590.3692307901
5	50	4.9	1591.0240630284
5	51	5	1591.6931765648
5	52	5.1	1592.3755327258
5	53	5.2	1593.0762159638
5	54	5.3	1593.789686691
5	55	5.4	1594.5159961507
5	56	5.5	1595.2550995881
5	57	5.6	1596.0039738277
5	58	5.7	1596.765041816
5	59	5.8	1597.5412850883
5	60	5.9	1598.3319865121
4	2	0.1	2415.8694684898
4	3	0.2	2415.8694684898
4	4	0.3	2415.845732873
4	5	0.4	2415.7990189458
4	6	0.5	2415.7304428896
4	7	0.6	2415.6413865678
4	8	0.7	2415.5313444568
4	9	0.8	2415.4026644597
4	10	0.9	2415.253749828
4	11	1	2415.0877721626
4	12	1.1	2414.9014220152
4	13	1.2	2414.6972375255
4	14	1.3	2414.476029961
4	15	1.4	2414.2351075599
4	16	1.5	2413.9751195706
4	17	1.6	2413.6943569791
4	18	1.7	2413.400071073
4	19	1.8	2413.0820719008
4	20	1.9	2412.7514266602
4	21	2	2412.3997032359
4	22	2.1	2412.0282535021
4	23	2.2	2411.638227237
4	24	2.3	2411.2334568062
4	25	2.4	2410.8141916771
4	26	2.5	2410.3769751566
4	27	2.6	2409.9212103181
4	28	2.7	2409.4479718177
4	29	2.8	2408.9551210204
4	30	2.9	2408.449159647
4	31	3	2407.9289953412
4	32	3.1	2407.434272861
4	33	3.2	2407.0121586007
4	34	3.3	2406.5725741392
4	35	3.4	2406.114908381
4	36	3.5	2405.6465809684
4	37	3.6	2405.1670944914
4	38	3.7	2404.677287863
4	39	3.8	2404.1781529811
4	40	3.9	2403.6680508436
4	41	4	2403.143897435
4	42	4.1	2402.6086066293
4	43	4.2	2402.05613007
4	44	4.3	2401.4912319428
4	45	4.4	2400.9093771066
4	46	4.5	2400.3178839575
4	47	4.6	2399.7128908854
4	48	4.7	2399.0934189598
4	49	4.8	2398.4580972631
4	50	4.9	2397.8115806727
4	51	5	2397.1509641412
4	52	5.1	2396.4772731521
4	53	5.2	2395.7854878188
4	54	5.3	2395.0810773844
4	55	5.4	2394.3639912542
4	56	5.5	2393.6342736162
4	57	5.6	2392.8949092553
4	58	5.7	2392.1435059916
4	59	5.8	2391.3771201536
4	60	5.9	2390.5964597668
15	34	3.3	1.4374867592412
15	35	3.4	1.5359622306157
15	36	3.5	1.7542787034131
15	37	3.6	1.7558625097664
15	38	3.7	1.9459058261406
15	39	3.8	1.934077584112
15	40	3.9	2.1233720653538
15	41	4	2.1233215430257
15	42	4.1	2.1549096014547
15	43	4.2	2.3055635867754
15	44	4.3	2.4092828910849
15	45	4.4	2.3025424680536
15	46	4.5	3.0180564847805
15	47	4.6	2.7809191328738
15	48	4.7	3.2121220823043
15	49	4.8	2.6983777470843
15	50	4.9	3.4217200501691
15	51	5	3.6729115306537
15	52	5.1	3.559573660761
15	53	5.2	3.9447754859589
15	54	5.3	3.9835561553698
15	55	5.4	3.8576832985585
15	56	5.5	3.1155343964884
15	57	5.6	3.9456657678717
15	58	5.7	3.7640228391232
15	59	5.8	3.3257667550119
15	60	5.9	4.8983021517334
14	34	3.3	2.5058086450397
14	35	3.4	2.2352498837015
14	36	3.5	2.5308295496282
14	37	3.6	2.0610842388746
14	38	3.7	2.257848739438
14	39	3.8	1.9309768744856
14	40	3.9	2.1149791217531
14	41	4	1.8955771246036
14	42	4.1	1.7839522764283
14	43	4.2	1.8890033393767
14	44	4.3	1.9014148032991
14	45	4.4	1.6137996934354
14	46	4.5	2.4623201116454
14	47	4.6	1.9843194504501
14	48	4.7	2.3577679520939
14	49	4.8	1.6420063687023
14	50	4.9	2.318484536279
14	51	5	2.4242163747549
14	52	5.1	2.1786166946404
14	53	5.2	2.4054226770764
14	54	5.3	2.310982198827
14	55	5.4	2.0975643285317
14	56	5.5	1.426621987205
14	57	5.6	2.0150650135707
14	58	5.7	1.8030174996005
14	59	5.8	1.4269468483282
14	60	5.9	2.4709355429979
13	33	3.2	0.25157376560476
13	34	3.3	0.50215463010873
13	35	3.4	0.72567961847888
13	36	3.5	0.9787625734417
13	37	3.6	1.1848709973292
13	38	3.7	1.410655871273
13	39	3.8	1.6037535587215
13	40	3.9	1.8152514708968
13	41	4	2.0048091833572
13	42	4.1	2.183204411
13	43	4.2	2.3721047449377
13	44	4.3	2.5622462252676
13	45	4.4	2.7236261946111
13	46	4.5	2.9698582057757
13	47	4.6	3.1682901508207
13	48	4.7	3.4040669460301
13	49	4.8	3.5682675829003
13	50	4.9	3.8001160365282
13	51	5	4.0425376740037
13	52	5.1	4.2603993434677
13	53	5.2	4.5009416111754
13	54	5.3	4.7320398310581
13	55	5.4	4.9417962639113
13	56	5.5	5.0844584626318
13	57	5.6	5.2859649639888
13	58	5.7	5.4662667139489
13	59	5.8	5.6089613987817
13	60	5.9	5.8560549530815
12	32	3.1	1578.0861504339
12	33	3.2	1578.0861504339
12	34	3.3	1578.094821508
12	35	3.4	1578.1121294349
12	36	3.5	1578.1371416692
12	37	3.6	1578.1708769966
12	38	3.7	1578.2117163297
12	39	3.8	1578.2603378631
12	40	3.9	1578.3156149574
12	41	4	1578.3781818189
12	42	4.1	1578.4472822268
12	43	4.2	1578.5225314414
12	44	4.3	1578.6042915452
12	45	4.4	1578.6926053166
12	46	4.5	1578.7864814242
12	47	4.6	1578.8888444901
12	48	4.7	1578.9980469747
12	49	4.8	1579.1153760543
12	50	4.9	1579.23836469
12	51	5	1579.3693445222
12	52	5.1	1579.5086799795
12	53	5.2	1579.6555245453
12	54	5.3	1579.8106599599
12	55	5.4	1579.973760712
12	56	5.5	1580.1440912066
12	57	5.6	1580.3193388861
12	58	5.7	1580.5015319549
12	59	5.8	1580.6899395427
12	60	5.9	1580.8832654338
11	32	3.1	2415.8694684898
11	33	3.2	2415.8694684898
11	34	3.3	2415.8458541166
11	35	3.4	2415.7987185706
11	36	3.5	2415.7306014945
11	37	3.6	2415.638728383
11	38	3.7	2415.5275085751
11	39	3.8	2415.3950951096
11	40	3.9	2415.2445562213
11	41	4	2415.0741647439
11	42	4.1	2414.8859801291
11	43	4.2	2414.6810501615
11	44	4.3	2414.4583887624
11	45	4.4	2414.2178794297
11	46	4.5	2413.9622219086
11	47	4.6	2413.6834514266
11	48	4.7	2413.3860548133
11	49	4.8	2413.0665266346
11	50	4.9	2412.731585501
11	51	5	2412.3748815422
11	52	5.1	2411.9954222892
11	53	5.2	2411.5955131029
11	54	5.3	2411.1730250326
11	55	5.4	2410.7288445589
11	56	5.5	2410.2649749629
11	57	5.6	2409.7877141517
11	58	5.7	2409.2915386111
11	59	5.8	2408.7784387588
11	60	5.9	2408.251944642
